SIRIUS 7.5.2, git hash: https://api.github.com/repos/electronic-structure/SIRIUS/git/ref/tags/v7.5.2
 DBCSR| CPU Multiplication driver                                           XSMM (U)
 DBCSR| Multrec recursion limit                                              512 (U)
 DBCSR| Multiplication stack size                                           1000 (D)
 DBCSR| Maximum elements for images                                    UNLIMITED (U)
 DBCSR| Multiplicative factor virtual images                                   1 (U)
 DBCSR| Use multiplication densification                                       T (D)
 DBCSR| Multiplication size stacks                                             3 (U)
 DBCSR| Use memory pool for CPU allocation                                     F (U)
 DBCSR| Number of 3D layers                                               SINGLE (U)
 DBCSR| Use MPI memory allocation                                              F (U)
 DBCSR| Use RMA algorithm                                                      F (U)
 DBCSR| Use Communication thread                                               T (U)
 DBCSR| Communication thread load                                              0 (D)
 DBCSR| MPI: My process id                                                     0
 DBCSR| MPI: Number of processes                                              96
 DBCSR| OMP: Current number of threads                                        32
 DBCSR| OMP: Max number of threads                                            32
 DBCSR| Split modifier for TAS multiplication algorithm                  1.0E+00 (U)


  **** **** ******  **  PROGRAM STARTED AT               2025-03-11 07:04:45.697
 ***** ** ***  *** **   PROGRAM STARTED ON                n2lcn0101.ab2021.local
 **    ****   ******    PROGRAM STARTED BY                              metdyn02
 ***** **    ** ** **   PROGRAM PROCESS ID                               1304979
  **** **  *******  **  PROGRAM STARTED IN /scratch/hpc-prf-metdyn/metdyn02_Remi
                                           /08_3D/02_C_dia

 CP2K| version string:                 CP2K version 2025.1 (Development Version)
 CP2K| source code revision number:                                  git:d2e611a
 CP2K| cp2kflags: omp libint fftw3 libxc libgrpp elpa parallel scalapack mpi_f08
 CP2K|             cosma xsmm plumed2 spglib sirius libvori libbqb libvdwxc hdf5
 CP2K| is freely available from                            https://www.cp2k.org/
 CP2K| Program compiled at                          Thu Mar  6 12:16:05 CET 2025
 CP2K| Program compiled on                                              n2login1
 CP2K| Program compiled for                                                local
 CP2K| Data directory path    /opt/software/pc2/EB-SW/software/CP2K/2024.1-foss-
 CP2K| Input file name                                                    GW.inp

 GLOBAL| Force Environment number                                              1
 GLOBAL| Basis set file name            /scratch/hpc-prf-metdyn/metdyn02_Remi/BA
 GLOBAL| Potential file name            /pc2/groups/hpc-prf-metdyn/metdyn02_Remi
 GLOBAL| MM Potential file name                                     MM_POTENTIAL
 GLOBAL| Coordinate file name                                      __STD_INPUT__
 GLOBAL| Method name                                                        CP2K
 GLOBAL| Project name                                                          C
 GLOBAL| Run type                                                         ENERGY
 GLOBAL| FFT library                                                       FFTW3
 GLOBAL| Diagonalization library                                            ELPA
 GLOBAL| DGEMM library                                                      BLAS
 GLOBAL| Minimum number of eigenvectors for ELPA usage                        16
 GLOBAL| Orthonormality check for eigenvectors                          DISABLED
 GLOBAL| Matrix multiplication library                                     COSMA
 GLOBAL| All-to-all communication in single precision                          F
 GLOBAL| FFTs using library dependent lengths                                  F
 GLOBAL| Grid backend                                                       AUTO
 GLOBAL| Global print level                                               MEDIUM
 GLOBAL| MPI I/O enabled                                                       T
 GLOBAL| Total number of message passing processes                            96
 GLOBAL| Number of threads for this process                                   32
 GLOBAL| This output is from process                                           0
 GLOBAL| OpenMP stack size per thread (OMP_STACKSIZE)                    default
 GLOBAL| CPU model name                          AMD EPYC 7763 64-Core Processor
 GLOBAL| CPUID                                                              1002

 MEMORY| system memory details [Kb]
 MEMORY|                        rank 0           min           max       average
 MEMORY| MemTotal           1056622244    1056622244    1056622248    1056622247
 MEMORY| MemFree            1038718024    1034296512    1046464404    1040286832
 MEMORY| Buffers                282552         35100        286980        181705
 MEMORY| Cached                9819492       4857952      14827872       8748824
 MEMORY| Slab                  3540376       1402344       3984040       2832293
 MEMORY| SReclaimable          1233588        276924       1314584        791626
 MEMORY| MemLikelyFree      1050053656    1049166148    1051721000    1050008988


 *** Fundamental physical constants (SI units) ***

 *** Literature: B. J. Mohr and B. N. Taylor,
 ***             CODATA recommended values of the fundamental physical
 ***             constants: 2006, Web Version 5.1
 ***             http://physics.nist.gov/constants

 Speed of light in vacuum [m/s]                             2.99792458000000E+08
 Magnetic constant or permeability of vacuum [N/A**2]       1.25663706143592E-06
 Electric constant or permittivity of vacuum [F/m]          8.85418781762039E-12
 Planck constant (h) [J*s]                                  6.62606896000000E-34
 Planck constant (h-bar) [J*s]                              1.05457162825177E-34
 Elementary charge [C]                                      1.60217648700000E-19
 Electron mass [kg]                                         9.10938215000000E-31
 Electron g factor [ ]                                     -2.00231930436220E+00
 Proton mass [kg]                                           1.67262163700000E-27
 Fine-structure constant                                    7.29735253760000E-03
 Rydberg constant [1/m]                                     1.09737315685270E+07
 Avogadro constant [1/mol]                                  6.02214179000000E+23
 Boltzmann constant [J/K]                                   1.38065040000000E-23
 Atomic mass unit [kg]                                      1.66053878200000E-27
 Bohr radius [m]                                            5.29177208590000E-11

 *** Conversion factors ***

 [u] -> [a.u.]                                              1.82288848426455E+03
 [Angstrom] -> [Bohr] = [a.u.]                              1.88972613288564E+00
 [a.u.] = [Bohr] -> [Angstrom]                              5.29177208590000E-01
 [a.u.] -> [s]                                              2.41888432650478E-17
 [a.u.] -> [fs]                                             2.41888432650478E-02
 [a.u.] -> [J]                                              4.35974393937059E-18
 [a.u.] -> [N]                                              8.23872205491840E-08
 [a.u.] -> [K]                                              3.15774647902944E+05
 [a.u.] -> [kJ/mol]                                         2.62549961709828E+03
 [a.u.] -> [kcal/mol]                                       6.27509468713739E+02
 [a.u.] -> [Pa]                                             2.94210107994716E+13
 [a.u.] -> [bar]                                            2.94210107994716E+08
 [a.u.] -> [atm]                                            2.90362800883016E+08
 [a.u.] -> [eV]                                             2.72113838565563E+01
 [a.u.] -> [Hz]                                             6.57968392072181E+15
 [a.u.] -> [1/cm] (wave numbers)                            2.19474631370540E+05
 [a.u./Bohr**2] -> [1/cm]                                   5.14048714338585E+03
 

 CELL_TOP| Volume [angstrom^3]:                                        11.355717
 CELL_TOP| Vector a [angstrom     1.784     1.784     0.000   |a| =     2.522957
 CELL_TOP| Vector b [angstrom     0.000     1.784     1.784   |b| =     2.522957
 CELL_TOP| Vector c [angstrom     1.784     0.000     1.784   |c| =     2.522957
 CELL_TOP| Angle (b,c), alpha [degree]:                                60.000000
 CELL_TOP| Angle (a,c), beta  [degree]:                                60.000000
 CELL_TOP| Angle (a,b), gamma [degree]:                                60.000000
 CELL_TOP| Numerically orthorhombic:                                          NO
 CELL_TOP| Periodicity                                                       XYZ

 GENERATE|  Preliminary Number of Bonds generated:                             0
 GENERATE|  Achieved consistency in connectivity generation.

 CELL| Volume [angstrom^3]:                                            11.355717
 CELL| Vector a [angstrom]:       1.784     1.784     0.000   |a| =     2.522957
 CELL| Vector b [angstrom]:       0.000     1.784     1.784   |b| =     2.522957
 CELL| Vector c [angstrom]:       1.784     0.000     1.784   |c| =     2.522957
 CELL| Angle (b,c), alpha [degree]:                                    60.000000
 CELL| Angle (a,c), beta  [degree]:                                    60.000000
 CELL| Angle (a,b), gamma [degree]:                                    60.000000
 CELL| Numerically orthorhombic:                                              NO
 CELL| Periodicity                                                           XYZ

 CELL_REF| Volume [angstrom^3]:                                        11.355717
 CELL_REF| Vector a [angstrom     1.784     1.784     0.000   |a| =     2.522957
 CELL_REF| Vector b [angstrom     0.000     1.784     1.784   |b| =     2.522957
 CELL_REF| Vector c [angstrom     1.784     0.000     1.784   |c| =     2.522957
 CELL_REF| Angle (b,c), alpha [degree]:                                60.000000
 CELL_REF| Angle (a,c), beta  [degree]:                                60.000000
 CELL_REF| Angle (a,b), gamma [degree]:                                60.000000
 CELL_REF| Numerically orthorhombic:                                          NO
 CELL_REF| Periodicity                                                       XYZ

 *******************************************************************************
                                    Kpoints
 *******************************************************************************
 BRILLOUIN| K-point scheme                                        Monkhorst-Pack
 BRILLOUIN| K-Point grid                                             8    8    8
 BRILLOUIN| Accuracy in Symmetry determination                      0.100000E-05
 BRILLOUIN| K-Point point group symmetrization                               OFF
 BRILLOUIN| Wavefunction type                                            COMPLEX
 BRILLOUIN| List of Kpoints [2 Pi/Bohr]                                      256
 BRILLOUIN| Number           Weight            X              Y              Z
 BRILLOUIN|     1           0.00391       -0.43750       -0.43750       -0.43750
 BRILLOUIN|     2           0.00391       -0.43750       -0.43750       -0.31250
 BRILLOUIN|     3           0.00391       -0.43750       -0.43750       -0.18750
 BRILLOUIN|     4           0.00391       -0.43750       -0.43750       -0.06250
 BRILLOUIN|     5           0.00391       -0.43750       -0.43750        0.06250
 BRILLOUIN|     6           0.00391       -0.43750       -0.43750        0.18750
 BRILLOUIN|     7           0.00391       -0.43750       -0.43750        0.31250
 BRILLOUIN|     8           0.00391       -0.43750       -0.43750        0.43750
 BRILLOUIN|     9           0.00391       -0.43750       -0.31250       -0.43750
 BRILLOUIN|    10           0.00391       -0.43750       -0.31250       -0.31250
 BRILLOUIN|    11           0.00391       -0.43750       -0.31250       -0.18750
 BRILLOUIN|    12           0.00391       -0.43750       -0.31250       -0.06250
 BRILLOUIN|    13           0.00391       -0.43750       -0.31250        0.06250
 BRILLOUIN|    14           0.00391       -0.43750       -0.31250        0.18750
 BRILLOUIN|    15           0.00391       -0.43750       -0.31250        0.31250
 BRILLOUIN|    16           0.00391       -0.43750       -0.31250        0.43750
 BRILLOUIN|    17           0.00391       -0.43750       -0.18750       -0.43750
 BRILLOUIN|    18           0.00391       -0.43750       -0.18750       -0.31250
 BRILLOUIN|    19           0.00391       -0.43750       -0.18750       -0.18750
 BRILLOUIN|    20           0.00391       -0.43750       -0.18750       -0.06250
 BRILLOUIN|    21           0.00391       -0.43750       -0.18750        0.06250
 BRILLOUIN|    22           0.00391       -0.43750       -0.18750        0.18750
 BRILLOUIN|    23           0.00391       -0.43750       -0.18750        0.31250
 BRILLOUIN|    24           0.00391       -0.43750       -0.18750        0.43750
 BRILLOUIN|    25           0.00391       -0.43750       -0.06250       -0.43750
 BRILLOUIN|    26           0.00391       -0.43750       -0.06250       -0.31250
 BRILLOUIN|    27           0.00391       -0.43750       -0.06250       -0.18750
 BRILLOUIN|    28           0.00391       -0.43750       -0.06250       -0.06250
 BRILLOUIN|    29           0.00391       -0.43750       -0.06250        0.06250
 BRILLOUIN|    30           0.00391       -0.43750       -0.06250        0.18750
 BRILLOUIN|    31           0.00391       -0.43750       -0.06250        0.31250
 BRILLOUIN|    32           0.00391       -0.43750       -0.06250        0.43750
 BRILLOUIN|    33           0.00391       -0.43750        0.06250       -0.43750
 BRILLOUIN|    34           0.00391       -0.43750        0.06250       -0.31250
 BRILLOUIN|    35           0.00391       -0.43750        0.06250       -0.18750
 BRILLOUIN|    36           0.00391       -0.43750        0.06250       -0.06250
 BRILLOUIN|    37           0.00391       -0.43750        0.06250        0.06250
 BRILLOUIN|    38           0.00391       -0.43750        0.06250        0.18750
 BRILLOUIN|    39           0.00391       -0.43750        0.06250        0.31250
 BRILLOUIN|    40           0.00391       -0.43750        0.06250        0.43750
 BRILLOUIN|    41           0.00391       -0.43750        0.18750       -0.43750
 BRILLOUIN|    42           0.00391       -0.43750        0.18750       -0.31250
 BRILLOUIN|    43           0.00391       -0.43750        0.18750       -0.18750
 BRILLOUIN|    44           0.00391       -0.43750        0.18750       -0.06250
 BRILLOUIN|    45           0.00391       -0.43750        0.18750        0.06250
 BRILLOUIN|    46           0.00391       -0.43750        0.18750        0.18750
 BRILLOUIN|    47           0.00391       -0.43750        0.18750        0.31250
 BRILLOUIN|    48           0.00391       -0.43750        0.18750        0.43750
 BRILLOUIN|    49           0.00391       -0.43750        0.31250       -0.43750
 BRILLOUIN|    50           0.00391       -0.43750        0.31250       -0.31250
 BRILLOUIN|    51           0.00391       -0.43750        0.31250       -0.18750
 BRILLOUIN|    52           0.00391       -0.43750        0.31250       -0.06250
 BRILLOUIN|    53           0.00391       -0.43750        0.31250        0.06250
 BRILLOUIN|    54           0.00391       -0.43750        0.31250        0.18750
 BRILLOUIN|    55           0.00391       -0.43750        0.31250        0.31250
 BRILLOUIN|    56           0.00391       -0.43750        0.31250        0.43750
 BRILLOUIN|    57           0.00391       -0.43750        0.43750       -0.43750
 BRILLOUIN|    58           0.00391       -0.43750        0.43750       -0.31250
 BRILLOUIN|    59           0.00391       -0.43750        0.43750       -0.18750
 BRILLOUIN|    60           0.00391       -0.43750        0.43750       -0.06250
 BRILLOUIN|    61           0.00391       -0.43750        0.43750        0.06250
 BRILLOUIN|    62           0.00391       -0.43750        0.43750        0.18750
 BRILLOUIN|    63           0.00391       -0.43750        0.43750        0.31250
 BRILLOUIN|    64           0.00391       -0.43750        0.43750        0.43750
 BRILLOUIN|    65           0.00391       -0.31250       -0.43750       -0.43750
 BRILLOUIN|    66           0.00391       -0.31250       -0.43750       -0.31250
 BRILLOUIN|    67           0.00391       -0.31250       -0.43750       -0.18750
 BRILLOUIN|    68           0.00391       -0.31250       -0.43750       -0.06250
 BRILLOUIN|    69           0.00391       -0.31250       -0.43750        0.06250
 BRILLOUIN|    70           0.00391       -0.31250       -0.43750        0.18750
 BRILLOUIN|    71           0.00391       -0.31250       -0.43750        0.31250
 BRILLOUIN|    72           0.00391       -0.31250       -0.43750        0.43750
 BRILLOUIN|    73           0.00391       -0.31250       -0.31250       -0.43750
 BRILLOUIN|    74           0.00391       -0.31250       -0.31250       -0.31250
 BRILLOUIN|    75           0.00391       -0.31250       -0.31250       -0.18750
 BRILLOUIN|    76           0.00391       -0.31250       -0.31250       -0.06250
 BRILLOUIN|    77           0.00391       -0.31250       -0.31250        0.06250
 BRILLOUIN|    78           0.00391       -0.31250       -0.31250        0.18750
 BRILLOUIN|    79           0.00391       -0.31250       -0.31250        0.31250
 BRILLOUIN|    80           0.00391       -0.31250       -0.31250        0.43750
 BRILLOUIN|    81           0.00391       -0.31250       -0.18750       -0.43750
 BRILLOUIN|    82           0.00391       -0.31250       -0.18750       -0.31250
 BRILLOUIN|    83           0.00391       -0.31250       -0.18750       -0.18750
 BRILLOUIN|    84           0.00391       -0.31250       -0.18750       -0.06250
 BRILLOUIN|    85           0.00391       -0.31250       -0.18750        0.06250
 BRILLOUIN|    86           0.00391       -0.31250       -0.18750        0.18750
 BRILLOUIN|    87           0.00391       -0.31250       -0.18750        0.31250
 BRILLOUIN|    88           0.00391       -0.31250       -0.18750        0.43750
 BRILLOUIN|    89           0.00391       -0.31250       -0.06250       -0.43750
 BRILLOUIN|    90           0.00391       -0.31250       -0.06250       -0.31250
 BRILLOUIN|    91           0.00391       -0.31250       -0.06250       -0.18750
 BRILLOUIN|    92           0.00391       -0.31250       -0.06250       -0.06250
 BRILLOUIN|    93           0.00391       -0.31250       -0.06250        0.06250
 BRILLOUIN|    94           0.00391       -0.31250       -0.06250        0.18750
 BRILLOUIN|    95           0.00391       -0.31250       -0.06250        0.31250
 BRILLOUIN|    96           0.00391       -0.31250       -0.06250        0.43750
 BRILLOUIN|    97           0.00391       -0.31250        0.06250       -0.43750
 BRILLOUIN|    98           0.00391       -0.31250        0.06250       -0.31250
 BRILLOUIN|    99           0.00391       -0.31250        0.06250       -0.18750
 BRILLOUIN|   100           0.00391       -0.31250        0.06250       -0.06250
 BRILLOUIN|   101           0.00391       -0.31250        0.06250        0.06250
 BRILLOUIN|   102           0.00391       -0.31250        0.06250        0.18750
 BRILLOUIN|   103           0.00391       -0.31250        0.06250        0.31250
 BRILLOUIN|   104           0.00391       -0.31250        0.06250        0.43750
 BRILLOUIN|   105           0.00391       -0.31250        0.18750       -0.43750
 BRILLOUIN|   106           0.00391       -0.31250        0.18750       -0.31250
 BRILLOUIN|   107           0.00391       -0.31250        0.18750       -0.18750
 BRILLOUIN|   108           0.00391       -0.31250        0.18750       -0.06250
 BRILLOUIN|   109           0.00391       -0.31250        0.18750        0.06250
 BRILLOUIN|   110           0.00391       -0.31250        0.18750        0.18750
 BRILLOUIN|   111           0.00391       -0.31250        0.18750        0.31250
 BRILLOUIN|   112           0.00391       -0.31250        0.18750        0.43750
 BRILLOUIN|   113           0.00391       -0.31250        0.31250       -0.43750
 BRILLOUIN|   114           0.00391       -0.31250        0.31250       -0.31250
 BRILLOUIN|   115           0.00391       -0.31250        0.31250       -0.18750
 BRILLOUIN|   116           0.00391       -0.31250        0.31250       -0.06250
 BRILLOUIN|   117           0.00391       -0.31250        0.31250        0.06250
 BRILLOUIN|   118           0.00391       -0.31250        0.31250        0.18750
 BRILLOUIN|   119           0.00391       -0.31250        0.31250        0.31250
 BRILLOUIN|   120           0.00391       -0.31250        0.31250        0.43750
 BRILLOUIN|   121           0.00391       -0.31250        0.43750       -0.43750
 BRILLOUIN|   122           0.00391       -0.31250        0.43750       -0.31250
 BRILLOUIN|   123           0.00391       -0.31250        0.43750       -0.18750
 BRILLOUIN|   124           0.00391       -0.31250        0.43750       -0.06250
 BRILLOUIN|   125           0.00391       -0.31250        0.43750        0.06250
 BRILLOUIN|   126           0.00391       -0.31250        0.43750        0.18750
 BRILLOUIN|   127           0.00391       -0.31250        0.43750        0.31250
 BRILLOUIN|   128           0.00391       -0.31250        0.43750        0.43750
 BRILLOUIN|   129           0.00391       -0.18750       -0.43750       -0.43750
 BRILLOUIN|   130           0.00391       -0.18750       -0.43750       -0.31250
 BRILLOUIN|   131           0.00391       -0.18750       -0.43750       -0.18750
 BRILLOUIN|   132           0.00391       -0.18750       -0.43750       -0.06250
 BRILLOUIN|   133           0.00391       -0.18750       -0.43750        0.06250
 BRILLOUIN|   134           0.00391       -0.18750       -0.43750        0.18750
 BRILLOUIN|   135           0.00391       -0.18750       -0.43750        0.31250
 BRILLOUIN|   136           0.00391       -0.18750       -0.43750        0.43750
 BRILLOUIN|   137           0.00391       -0.18750       -0.31250       -0.43750
 BRILLOUIN|   138           0.00391       -0.18750       -0.31250       -0.31250
 BRILLOUIN|   139           0.00391       -0.18750       -0.31250       -0.18750
 BRILLOUIN|   140           0.00391       -0.18750       -0.31250       -0.06250
 BRILLOUIN|   141           0.00391       -0.18750       -0.31250        0.06250
 BRILLOUIN|   142           0.00391       -0.18750       -0.31250        0.18750
 BRILLOUIN|   143           0.00391       -0.18750       -0.31250        0.31250
 BRILLOUIN|   144           0.00391       -0.18750       -0.31250        0.43750
 BRILLOUIN|   145           0.00391       -0.18750       -0.18750       -0.43750
 BRILLOUIN|   146           0.00391       -0.18750       -0.18750       -0.31250
 BRILLOUIN|   147           0.00391       -0.18750       -0.18750       -0.18750
 BRILLOUIN|   148           0.00391       -0.18750       -0.18750       -0.06250
 BRILLOUIN|   149           0.00391       -0.18750       -0.18750        0.06250
 BRILLOUIN|   150           0.00391       -0.18750       -0.18750        0.18750
 BRILLOUIN|   151           0.00391       -0.18750       -0.18750        0.31250
 BRILLOUIN|   152           0.00391       -0.18750       -0.18750        0.43750
 BRILLOUIN|   153           0.00391       -0.18750       -0.06250       -0.43750
 BRILLOUIN|   154           0.00391       -0.18750       -0.06250       -0.31250
 BRILLOUIN|   155           0.00391       -0.18750       -0.06250       -0.18750
 BRILLOUIN|   156           0.00391       -0.18750       -0.06250       -0.06250
 BRILLOUIN|   157           0.00391       -0.18750       -0.06250        0.06250
 BRILLOUIN|   158           0.00391       -0.18750       -0.06250        0.18750
 BRILLOUIN|   159           0.00391       -0.18750       -0.06250        0.31250
 BRILLOUIN|   160           0.00391       -0.18750       -0.06250        0.43750
 BRILLOUIN|   161           0.00391       -0.18750        0.06250       -0.43750
 BRILLOUIN|   162           0.00391       -0.18750        0.06250       -0.31250
 BRILLOUIN|   163           0.00391       -0.18750        0.06250       -0.18750
 BRILLOUIN|   164           0.00391       -0.18750        0.06250       -0.06250
 BRILLOUIN|   165           0.00391       -0.18750        0.06250        0.06250
 BRILLOUIN|   166           0.00391       -0.18750        0.06250        0.18750
 BRILLOUIN|   167           0.00391       -0.18750        0.06250        0.31250
 BRILLOUIN|   168           0.00391       -0.18750        0.06250        0.43750
 BRILLOUIN|   169           0.00391       -0.18750        0.18750       -0.43750
 BRILLOUIN|   170           0.00391       -0.18750        0.18750       -0.31250
 BRILLOUIN|   171           0.00391       -0.18750        0.18750       -0.18750
 BRILLOUIN|   172           0.00391       -0.18750        0.18750       -0.06250
 BRILLOUIN|   173           0.00391       -0.18750        0.18750        0.06250
 BRILLOUIN|   174           0.00391       -0.18750        0.18750        0.18750
 BRILLOUIN|   175           0.00391       -0.18750        0.18750        0.31250
 BRILLOUIN|   176           0.00391       -0.18750        0.18750        0.43750
 BRILLOUIN|   177           0.00391       -0.18750        0.31250       -0.43750
 BRILLOUIN|   178           0.00391       -0.18750        0.31250       -0.31250
 BRILLOUIN|   179           0.00391       -0.18750        0.31250       -0.18750
 BRILLOUIN|   180           0.00391       -0.18750        0.31250       -0.06250
 BRILLOUIN|   181           0.00391       -0.18750        0.31250        0.06250
 BRILLOUIN|   182           0.00391       -0.18750        0.31250        0.18750
 BRILLOUIN|   183           0.00391       -0.18750        0.31250        0.31250
 BRILLOUIN|   184           0.00391       -0.18750        0.31250        0.43750
 BRILLOUIN|   185           0.00391       -0.18750        0.43750       -0.43750
 BRILLOUIN|   186           0.00391       -0.18750        0.43750       -0.31250
 BRILLOUIN|   187           0.00391       -0.18750        0.43750       -0.18750
 BRILLOUIN|   188           0.00391       -0.18750        0.43750       -0.06250
 BRILLOUIN|   189           0.00391       -0.18750        0.43750        0.06250
 BRILLOUIN|   190           0.00391       -0.18750        0.43750        0.18750
 BRILLOUIN|   191           0.00391       -0.18750        0.43750        0.31250
 BRILLOUIN|   192           0.00391       -0.18750        0.43750        0.43750
 BRILLOUIN|   193           0.00391       -0.06250       -0.43750       -0.43750
 BRILLOUIN|   194           0.00391       -0.06250       -0.43750       -0.31250
 BRILLOUIN|   195           0.00391       -0.06250       -0.43750       -0.18750
 BRILLOUIN|   196           0.00391       -0.06250       -0.43750       -0.06250
 BRILLOUIN|   197           0.00391       -0.06250       -0.43750        0.06250
 BRILLOUIN|   198           0.00391       -0.06250       -0.43750        0.18750
 BRILLOUIN|   199           0.00391       -0.06250       -0.43750        0.31250
 BRILLOUIN|   200           0.00391       -0.06250       -0.43750        0.43750
 BRILLOUIN|   201           0.00391       -0.06250       -0.31250       -0.43750
 BRILLOUIN|   202           0.00391       -0.06250       -0.31250       -0.31250
 BRILLOUIN|   203           0.00391       -0.06250       -0.31250       -0.18750
 BRILLOUIN|   204           0.00391       -0.06250       -0.31250       -0.06250
 BRILLOUIN|   205           0.00391       -0.06250       -0.31250        0.06250
 BRILLOUIN|   206           0.00391       -0.06250       -0.31250        0.18750
 BRILLOUIN|   207           0.00391       -0.06250       -0.31250        0.31250
 BRILLOUIN|   208           0.00391       -0.06250       -0.31250        0.43750
 BRILLOUIN|   209           0.00391       -0.06250       -0.18750       -0.43750
 BRILLOUIN|   210           0.00391       -0.06250       -0.18750       -0.31250
 BRILLOUIN|   211           0.00391       -0.06250       -0.18750       -0.18750
 BRILLOUIN|   212           0.00391       -0.06250       -0.18750       -0.06250
 BRILLOUIN|   213           0.00391       -0.06250       -0.18750        0.06250
 BRILLOUIN|   214           0.00391       -0.06250       -0.18750        0.18750
 BRILLOUIN|   215           0.00391       -0.06250       -0.18750        0.31250
 BRILLOUIN|   216           0.00391       -0.06250       -0.18750        0.43750
 BRILLOUIN|   217           0.00391       -0.06250       -0.06250       -0.43750
 BRILLOUIN|   218           0.00391       -0.06250       -0.06250       -0.31250
 BRILLOUIN|   219           0.00391       -0.06250       -0.06250       -0.18750
 BRILLOUIN|   220           0.00391       -0.06250       -0.06250       -0.06250
 BRILLOUIN|   221           0.00391       -0.06250       -0.06250        0.06250
 BRILLOUIN|   222           0.00391       -0.06250       -0.06250        0.18750
 BRILLOUIN|   223           0.00391       -0.06250       -0.06250        0.31250
 BRILLOUIN|   224           0.00391       -0.06250       -0.06250        0.43750
 BRILLOUIN|   225           0.00391       -0.06250        0.06250       -0.43750
 BRILLOUIN|   226           0.00391       -0.06250        0.06250       -0.31250
 BRILLOUIN|   227           0.00391       -0.06250        0.06250       -0.18750
 BRILLOUIN|   228           0.00391       -0.06250        0.06250       -0.06250
 BRILLOUIN|   229           0.00391       -0.06250        0.06250        0.06250
 BRILLOUIN|   230           0.00391       -0.06250        0.06250        0.18750
 BRILLOUIN|   231           0.00391       -0.06250        0.06250        0.31250
 BRILLOUIN|   232           0.00391       -0.06250        0.06250        0.43750
 BRILLOUIN|   233           0.00391       -0.06250        0.18750       -0.43750
 BRILLOUIN|   234           0.00391       -0.06250        0.18750       -0.31250
 BRILLOUIN|   235           0.00391       -0.06250        0.18750       -0.18750
 BRILLOUIN|   236           0.00391       -0.06250        0.18750       -0.06250
 BRILLOUIN|   237           0.00391       -0.06250        0.18750        0.06250
 BRILLOUIN|   238           0.00391       -0.06250        0.18750        0.18750
 BRILLOUIN|   239           0.00391       -0.06250        0.18750        0.31250
 BRILLOUIN|   240           0.00391       -0.06250        0.18750        0.43750
 BRILLOUIN|   241           0.00391       -0.06250        0.31250       -0.43750
 BRILLOUIN|   242           0.00391       -0.06250        0.31250       -0.31250
 BRILLOUIN|   243           0.00391       -0.06250        0.31250       -0.18750
 BRILLOUIN|   244           0.00391       -0.06250        0.31250       -0.06250
 BRILLOUIN|   245           0.00391       -0.06250        0.31250        0.06250
 BRILLOUIN|   246           0.00391       -0.06250        0.31250        0.18750
 BRILLOUIN|   247           0.00391       -0.06250        0.31250        0.31250
 BRILLOUIN|   248           0.00391       -0.06250        0.31250        0.43750
 BRILLOUIN|   249           0.00391       -0.06250        0.43750       -0.43750
 BRILLOUIN|   250           0.00391       -0.06250        0.43750       -0.31250
 BRILLOUIN|   251           0.00391       -0.06250        0.43750       -0.18750
 BRILLOUIN|   252           0.00391       -0.06250        0.43750       -0.06250
 BRILLOUIN|   253           0.00391       -0.06250        0.43750        0.06250
 BRILLOUIN|   254           0.00391       -0.06250        0.43750        0.18750
 BRILLOUIN|   255           0.00391       -0.06250        0.43750        0.31250
 BRILLOUIN|   256           0.00391       -0.06250        0.43750        0.43750
 *******************************************************************************

 *******************************************************************************
 *******************************************************************************
 **                                                                           **
 **     #####                         ##              ##                      **
 **    ##   ##            ##          ##              ##                      **
 **   ##     ##                       ##            ######                    **
 **   ##     ##  ##   ##  ##   #####  ##  ##   ####   ##    #####    #####    **
 **   ##     ##  ##   ##  ##  ##      ## ##   ##      ##   ##   ##  ##   ##   **
 **   ##  ## ##  ##   ##  ##  ##      ####     ###    ##   ######   ######    **
 **    ##  ###   ##   ##  ##  ##      ## ##      ##   ##   ##       ##        **
 **     #######   #####   ##   #####  ##  ##  ####    ##    #####   ##        **
 **           ##                                                    ##        **
 **                                                                           **
 **                                                ... make the atoms dance   **
 **                                                                           **
 **            Copyright (C) by CP2K developers group (2000-2025)             **
 **                      J. Chem. Phys. 152, 194103 (2020)                    **
 **                                                                           **
 *******************************************************************************

 DFT| Spin restricted Kohn-Sham (RKS) calculation                            RKS
 DFT| Multiplicity                                                             1
 DFT| Number of spin states                                                    1
 DFT| Charge                                                                   0
 DFT| Self-interaction correction (SIC)                                       NO
 DFT| Cutoffs: density                                              1.000000E-10
 DFT|          gradient                                             1.000000E-10
 DFT|          tau                                                  1.000000E-10
 DFT|          cutoff_smoothing_range                               0.000000E+00
 DFT| XC density smoothing                                                  NONE
 DFT| XC derivatives                                                          PW

 FUNCTIONAL| PBE:
 FUNCTIONAL| J.P.Perdew, K.Burke, M.Ernzerhof, Phys. Rev. Letter, vol. 77, n 18,
 FUNCTIONAL|  pp. 3865-3868, (1996) {spin unpolarized}                          


 QS| Method:                                                                GAPW
 QS| Density plane wave grid type                        NON-SPHERICAL FULLSPACE
 QS| Number of grid levels:                                                    4
 QS| Density cutoff [a.u.]:                                                250.0
 QS| Multi grid cutoff [a.u.]: 1) grid level                               250.0
 QS|                           2) grid level                                83.3
 QS|                           3) grid level                                27.8
 QS|                           4) grid level                                 9.3
 QS| Grid level progression factor:                                          3.0
 QS| Relative density cutoff [a.u.]:                                        50.0
 QS| Interaction thresholds: eps_pgf_orb:                                1.0E-12
 QS|                         eps_filter_matrix:                          0.0E+00
 QS|                         eps_core_charge:                            1.0E-14
 QS|                         eps_rho_gspace:                             1.0E-12
 QS|                         eps_rho_rspace:                             1.0E-12
 QS|                         eps_gvg_rspace:                             1.0E-06
 QS|                         eps_ppl:                                    1.0E-02
 QS|                         eps_ppnl:                                   1.0E-08
 QS| GAPW|      One center basis from orbital basis primitives
 QS| GAPW|                   eps_fit:                                    1.0E-04
 QS| GAPW|                   eps_iso:                                    1.0E-12
 QS| GAPW|                   eps_svd:                                    1.0E-08
 QS| GAPW|                   eps_cpc:                                    1.0E-12
 QS| GAPW|   atom-r-grid: quadrature:                                     GC_LOG
 QS| GAPW|      atom-s-grid:  max l :                                          4
 QS| GAPW|      max_l_rho0 :                                                   2


 ATOMIC KIND INFORMATION

  1. Atomic kind: C                                     Number of atoms:       2

     Orbital Basis Set                                        aug-SZV-MOLOPT-GTH

       Number of orbital shell sets:                                           1
       Number of orbital shells:                                               5
       Number of primitive Cartesian functions:                                6
       Number of Cartesian basis functions:                                   14
       Number of spherical basis functions:                                   13
       Norm type:                                                              2

       Normalised Cartesian orbitals:

                        Set   Shell   Orbital            Exponent    Coefficient

                          1       1    2s                0.128212      -0.022789
                                                         0.170000       0.000000
                                                         0.348157      -0.219794
                                                         0.769911      -0.209686
                                                         2.113016       0.213043
                                                         5.605331       0.322515

                          1       2    3s                0.128212      -0.011218
                                                         0.170000       0.211516
                                                         0.348157      -0.017308
                                                         0.769911       0.000059
                                                         2.113016       0.000000
                                                         5.605331       0.000000

                          1       3    3px               0.128212      -0.027849
                                                         0.170000       0.000000
                                                         0.348157      -0.139743
                                                         0.769911      -0.374851
                                                         2.113016      -0.642521
                                                         5.605331      -0.703879
                          1       3    3py               0.128212      -0.027849
                                                         0.170000       0.000000
                                                         0.348157      -0.139743
                                                         0.769911      -0.374851
                                                         2.113016      -0.642521
                                                         5.605331      -0.703879
                          1       3    3pz               0.128212      -0.027849
                                                         0.170000       0.000000
                                                         0.348157      -0.139743
                                                         0.769911      -0.374851
                                                         2.113016      -0.642521
                                                         5.605331      -0.703879

                          1       4    4px               0.128212      -0.292809
                                                         0.170000       0.260881
                                                         0.348157       0.116498
                                                         0.769911      -0.184036
                                                         2.113016       0.000000
                                                         5.605331       0.000000
                          1       4    4py               0.128212      -0.292809
                                                         0.170000       0.260881
                                                         0.348157       0.116498
                                                         0.769911      -0.184036
                                                         2.113016       0.000000
                                                         5.605331       0.000000
                          1       4    4pz               0.128212      -0.292809
                                                         0.170000       0.260881
                                                         0.348157       0.116498
                                                         0.769911      -0.184036
                                                         2.113016       0.000000
                                                         5.605331       0.000000

                          1       5    4dx2              0.128212       0.038324
                                                         0.170000       0.009466
                                                         0.348157       0.001927
                                                         0.769911       0.071948
                                                         2.113016       0.000000
                                                         5.605331       0.000000
                          1       5    4dxy              0.128212       0.066380
                                                         0.170000       0.016396
                                                         0.348157       0.003338
                                                         0.769911       0.124617
                                                         2.113016       0.000000
                                                         5.605331       0.000000
                          1       5    4dxz              0.128212       0.066380
                                                         0.170000       0.016396
                                                         0.348157       0.003338
                                                         0.769911       0.124617
                                                         2.113016       0.000000
                                                         5.605331       0.000000
                          1       5    4dy2              0.128212       0.038324
                                                         0.170000       0.009466
                                                         0.348157       0.001927
                                                         0.769911       0.071948
                                                         2.113016       0.000000
                                                         5.605331       0.000000
                          1       5    4dyz              0.128212       0.066380
                                                         0.170000       0.016396
                                                         0.348157       0.003338
                                                         0.769911       0.124617
                                                         2.113016       0.000000
                                                         5.605331       0.000000
                          1       5    4dz2              0.128212       0.038324
                                                         0.170000       0.009466
                                                         0.348157       0.001927
                                                         0.769911       0.071948
                                                         2.113016       0.000000
                                                         5.605331       0.000000

     RI Auxiliary Basis Set             RI_aug-SZV-MOLOPT-GTH_N_RI_013_s_p_d_f_g

       Number of orbital shell sets:                                           7
       Number of orbital shells:                                               7
       Number of primitive Cartesian functions:                                7
       Number of Cartesian basis functions:                                   13
       Number of spherical basis functions:                                   13
       Norm type:                                                              2

       Normalised Cartesian orbitals:

                        Set   Shell   Orbital            Exponent    Coefficient

                          1       1    1s                0.458788       0.397300

                          2       1    5px               0.706264       0.922888
                          2       1    5py               0.706264       0.922888
                          2       1    5pz               0.706264       0.922888

                          3       1    6px               1.025829       1.471580
                          3       1    6py               1.025829       1.471580
                          3       1    6pz               1.025829       1.471580

                          4       1    2s                1.381108       0.907989

                          5       1    7px               1.810216       2.992975
                          5       1    7py               1.810216       2.992975
                          5       1    7pz               1.810216       2.992975

                          6       1    3s                2.232832       1.301823

                          7       1    4s               11.840581       4.549251

       Atomic covalent radius [Angstrom]:                                  0.770

       Atomic van der Waals radius [Angstrom]:                             1.700

     The atoms of this atomic kind are PAW atoms (GAPW):
       Hard Gaussian function radius:                                      1.512
       Rho0 radius:                                                        1.512
       Maximum GTO radius used for PAW projector construction:            24.566

     GAPW Soft Basis Set                                 aug-SZV-MOLOPT-GTH_soft

       Number of orbital shell sets:                                           1
       Number of orbital shells:                                               5
       Number of primitive Cartesian functions:                                5
       Number of Cartesian basis functions:                                   14
       Number of spherical basis functions:                                   13
       Norm type:                                                              2

       Normalised Cartesian orbitals:

                        Set   Shell   Orbital            Exponent    Coefficient

                          1       1    2s                0.128212      -0.022789
                                                         0.170000       0.000000
                                                         0.348157      -0.219794
                                                         0.769911      -0.209686
                                                         2.113016       0.213043

                          1       2    3s                0.128212      -0.011218
                                                         0.170000       0.211516
                                                         0.348157      -0.017308
                                                         0.769911       0.000059
                                                         2.113016       0.000000

                          1       3    3px               0.128212      -0.027849
                                                         0.170000       0.000000
                                                         0.348157      -0.139743
                                                         0.769911      -0.374851
                                                         2.113016      -0.642521
                          1       3    3py               0.128212      -0.027849
                                                         0.170000       0.000000
                                                         0.348157      -0.139743
                                                         0.769911      -0.374851
                                                         2.113016      -0.642521
                          1       3    3pz               0.128212      -0.027849
                                                         0.170000       0.000000
                                                         0.348157      -0.139743
                                                         0.769911      -0.374851
                                                         2.113016      -0.642521

                          1       4    4px               0.128212      -0.292809
                                                         0.170000       0.260881
                                                         0.348157       0.116498
                                                         0.769911      -0.184036
                                                         2.113016       0.000000
                          1       4    4py               0.128212      -0.292809
                                                         0.170000       0.260881
                                                         0.348157       0.116498
                                                         0.769911      -0.184036
                                                         2.113016       0.000000
                          1       4    4pz               0.128212      -0.292809
                                                         0.170000       0.260881
                                                         0.348157       0.116498
                                                         0.769911      -0.184036
                                                         2.113016       0.000000

                          1       5    4dx2              0.128212       0.038324
                                                         0.170000       0.009466
                                                         0.348157       0.001927
                                                         0.769911       0.071948
                                                         2.113016       0.000000
                          1       5    4dxy              0.128212       0.066380
                                                         0.170000       0.016396
                                                         0.348157       0.003338
                                                         0.769911       0.124617
                                                         2.113016       0.000000
                          1       5    4dxz              0.128212       0.066380
                                                         0.170000       0.016396
                                                         0.348157       0.003338
                                                         0.769911       0.124617
                                                         2.113016       0.000000
                          1       5    4dy2              0.128212       0.038324
                                                         0.170000       0.009466
                                                         0.348157       0.001927
                                                         0.769911       0.071948
                                                         2.113016       0.000000
                          1       5    4dyz              0.128212       0.066380
                                                         0.170000       0.016396
                                                         0.348157       0.003338
                                                         0.769911       0.124617
                                                         2.113016       0.000000
                          1       5    4dz2              0.128212       0.038324
                                                         0.170000       0.009466
                                                         0.348157       0.001927
                                                         0.769911       0.071948
                                                         2.113016       0.000000

     GTH Potential information for                                       GTH-PBE

       Description:                       Goedecker-Teter-Hutter pseudopotential
                                           Goedecker et al., PRB 54, 1703 (1996)
                                          Hartwigsen et al., PRB 58, 3641 (1998)
                                                      Krack, TCA 114, 145 (2005)

       Gaussian exponent of the core charge distribution:               4.364419
       Electronic configuration (s p d ...):                               2   2

       Parameters of the local part of the GTH pseudopotential:

                          rloc        C1          C2          C3          C4
                        0.338471   -8.803674    1.339211

       Parameters of the non-local part of the GTH (SOC) pseudopotential:

                   l      r(l)      h(i,j,l)
                                    k(i,j,l)
                   0    0.302576    9.622487
                   1    0.291507    0.000000
                                    0.002073


 MOLECULE KIND INFORMATION


 All atoms are their own molecule, skipping detailed information


 TOTAL NUMBERS AND MAXIMUM NUMBERS

  Total number of            - Atomic kinds:                                   1
                             - Atoms:                                          2
                             - Shell sets:                                     2
                             - Shells:                                        10
                             - Primitive Cartesian functions:                 12
                             - Cartesian basis functions:                     28
                             - Spherical basis functions:                     26

  Maximum angular momentum of- Orbital basis functions:                        2
                             - Local part of the GTH pseudopotential:          2
                             - Non-local part of the GTH pseudopotential:      1


 MODULE QUICKSTEP: ATOMIC COORDINATES IN ANGSTROM

   Atom Kind Element         X             Y             Z       Z(eff)     Mass
      1    1 C     6      0.000000      0.000000      0.000000   4.0000  12.0107
      2    1 C     6      0.892000      0.892000      0.892000   4.0000  12.0107



 SCF PARAMETERS         Density guess:                                    ATOMIC
                        --------------------------------------------------------
                        max_scf:                                            1000
                        max_scf_history:                                       0
                        max_diis:                                              4
                        --------------------------------------------------------
                        eps_scf:                                        1.00E-09
                        eps_scf_history:                                0.00E+00
                        eps_diis:                                       1.00E-01
                        eps_eigval:                                     1.00E-05
                        --------------------------------------------------------
                        level_shift [a.u.]:                             0.000000
                        added MOs                                        22    0
                        --------------------------------------------------------
                        Mixing method:                            BROYDEN_MIXING
                                                charge density mixing in g-space
                        --------------------------------------------------------
                        No outer SCF

 PW_GRID| Information for grid number                                          1
 PW_GRID| Grid distributed over                                    96 processors
 PW_GRID| Real space group dimensions                                     8   12
 PW_GRID| the grid is blocked:                                               YES
 PW_GRID| Cutoff [a.u.]                                                    250.0
 PW_GRID| spherical cutoff:                                                   NO
 PW_GRID|   Bounds   1            -18      17                Points:          36
 PW_GRID|   Bounds   2            -18      17                Points:          36
 PW_GRID|   Bounds   3            -18      17                Points:          36
 PW_GRID| Volume element (a.u.^3)  0.1642E-02     Volume (a.u.^3)        76.6322
 PW_GRID| Grid span                                                    FULLSPACE
 PW_GRID|   Distribution                         Average         Max         Min
 PW_GRID|   G-Vectors                              486.0         540         432
 PW_GRID|   G-Rays                                  13.5          15          12
 PW_GRID|   Real Space Points                      486.0         540         432

 PW_GRID| Information for grid number                                          2
 PW_GRID| Number of the reference grid                                         1
 PW_GRID| Grid distributed over                                    96 processors
 PW_GRID| Real space group dimensions                                     8   12
 PW_GRID| the grid is blocked:                                                NO
 PW_GRID| Cutoff [a.u.]                                                     83.3
 PW_GRID| spherical cutoff:                                                   NO
 PW_GRID|   Bounds   1            -10       9                Points:          20
 PW_GRID|   Bounds   2            -10       9                Points:          20
 PW_GRID|   Bounds   3            -10       9                Points:          20
 PW_GRID| Volume element (a.u.^3)  0.9579E-02     Volume (a.u.^3)        76.6322
 PW_GRID| Grid span                                                    FULLSPACE
 PW_GRID|   Distribution                         Average         Max         Min
 PW_GRID|   G-Vectors                               83.3         300           0
 PW_GRID|   G-Rays                                   4.2          15           0
 PW_GRID|   Real Space Points                       83.3         120          40

 PW_GRID| Information for grid number                                          3
 PW_GRID| Number of the reference grid                                         1
 PW_GRID| Grid distributed over                                    96 processors
 PW_GRID| Real space group dimensions                                     8   12
 PW_GRID| the grid is blocked:                                                NO
 PW_GRID| Cutoff [a.u.]                                                     27.8
 PW_GRID| spherical cutoff:                                                   NO
 PW_GRID|   Bounds   1             -6       5                Points:          12
 PW_GRID|   Bounds   2             -6       5                Points:          12
 PW_GRID|   Bounds   3             -6       5                Points:          12
 PW_GRID| Volume element (a.u.^3)  0.4435E-01     Volume (a.u.^3)        76.6322
 PW_GRID| Grid span                                                    FULLSPACE
 PW_GRID|   Distribution                         Average         Max         Min
 PW_GRID|   G-Vectors                               18.0         180           0
 PW_GRID|   G-Rays                                   1.5          15           0
 PW_GRID|   Real Space Points                       18.0          24          12

 PW_GRID| Information for grid number                                          4
 PW_GRID| Number of the reference grid                                         1
 PW_GRID| Grid distributed over                                    96 processors
 PW_GRID| Real space group dimensions                                     8   12
 PW_GRID| the grid is blocked:                                                NO
 PW_GRID| Cutoff [a.u.]                                                      9.3
 PW_GRID| spherical cutoff:                                                   NO
 PW_GRID|   Bounds   1             -4       3                Points:           8
 PW_GRID|   Bounds   2             -4       3                Points:           8
 PW_GRID|   Bounds   3             -4       3                Points:           8
 PW_GRID| Volume element (a.u.^3)  0.1497         Volume (a.u.^3)        76.6322
 PW_GRID| Grid span                                                    FULLSPACE
 PW_GRID|   Distribution                         Average         Max         Min
 PW_GRID|   G-Vectors                                5.3          96           0
 PW_GRID|   G-Rays                                   0.7          12           0
 PW_GRID|   Real Space Points                        5.3           8           0

 POISSON| Solver                                                        PERIODIC
 POISSON| Periodicity                                                        XYZ

 RS_GRID| Information for grid number                                          1
 RS_GRID|   Bounds   1            -18      17                Points:          36
 RS_GRID|   Bounds   2            -18      17                Points:          36
 RS_GRID|   Bounds   3            -18      17                Points:          36
 RS_GRID| Real space fully replicated
 RS_GRID| Group size                                                           1

 RS_GRID| Information for grid number                                          2
 RS_GRID|   Bounds   1            -10       9                Points:          20
 RS_GRID|   Bounds   2            -10       9                Points:          20
 RS_GRID|   Bounds   3            -10       9                Points:          20
 RS_GRID| Real space fully replicated
 RS_GRID| Group size                                                           1

 RS_GRID| Information for grid number                                          3
 RS_GRID|   Bounds   1             -6       5                Points:          12
 RS_GRID|   Bounds   2             -6       5                Points:          12
 RS_GRID|   Bounds   3             -6       5                Points:          12
 RS_GRID| Real space fully replicated
 RS_GRID| Group size                                                           1

 RS_GRID| Information for grid number                                          4
 RS_GRID|   Bounds   1             -4       3                Points:           8
 RS_GRID|   Bounds   2             -4       3                Points:           8
 RS_GRID|   Bounds   3             -4       3                Points:           8
 RS_GRID| Real space fully replicated
 RS_GRID| Group size                                                           1

 Number of electrons:                                                          8
 Number of occupied orbitals:                                                  4
 Number of molecular orbitals:                                                26

 Number of orbital functions:                                                 26
 Number of independent orbital functions:                                     26

 Extrapolation method: initial_guess

 Atomic guess: The first density matrix is obtained in terms of atomic orbitals
               and electronic configurations assigned to each atomic kind

 Guess for atomic kind: C

 Electronic structure
    Total number of core electrons                                          2.00
    Total number of valence electrons                                       4.00
    Total number of electrons                                               6.00
    Multiplicity                                                   not specified
    S   [  2.00] 2.00
    P      2.00


 *******************************************************************************
                  Iteration          Convergence                     Energy [au]
 *******************************************************************************
                          1        0.564204E-01                  -5.269594473991
                          2        0.221266E-01                  -5.271265775371
                          3        0.545175E-03                  -5.271736608327
                          4        0.787401E-06                  -5.271736826523

 Energy components [Hartree]           Total Energy ::           -5.271736826523
                                        Band Energy ::           -1.239198259046
                                     Kinetic Energy ::            3.630038591458
                                   Potential Energy ::           -8.901775417981
                                      Virial (-V/T) ::            2.452253658936
                                        Core Energy ::           -8.334885471437
                                          XC Energy ::           -1.398261642506
                                     Coulomb Energy ::            4.461410287420
                       Total Pseudopotential Energy ::          -11.998487185308
                       Local Pseudopotential Energy ::          -12.632749868480
                    Nonlocal Pseudopotential Energy ::            0.634262683172
                                        Confinement ::            0.335631224137

 Orbital energies  State     L     Occupation   Energy[a.u.]          Energy[eV]

                       1     0          2.000      -0.467017          -12.708175

                       1     1          2.000      -0.152582           -4.151975


 Total Electron Density at R=0:                                         0.000170
 Re-scaling the density matrix to get the right number of electrons
                  # Electrons              Trace(P)               Scaling factor
                            8                 8.000                        1.000


 SCF WAVEFUNCTION OPTIMIZATION

  Step     Update method      Time    Convergence         Total energy    Change
  ------------------------------------------------------------------------------
     1 NoMix/Diag. 0.10E+00    9.0     1.12461934       -11.6282909981 -1.16E+01
     2 Broy./Diag. 0.10E+00   10.1     0.01853598       -11.1867848246  4.42E-01
     3 Broy./Diag. 0.10E+00   10.8     0.01449328       -11.2206202352 -3.38E-02
     4 Broy./Diag. 0.10E+00    9.2     0.01198659       -11.2585786486 -3.80E-02
     5 Broy./Diag. 0.10E+00   10.2     0.00467093       -11.3032392807 -4.47E-02
     6 Broy./Diag. 0.10E+00   10.5     0.02010979       -11.3710884057 -6.78E-02
     7 Broy./Diag. 0.10E+00    9.6     0.00020743       -11.3838267761 -1.27E-02
     8 Broy./Diag. 0.10E+00   10.0     0.00106148       -11.3804110983  3.42E-03
     9 Broy./Diag. 0.10E+00   10.8     0.00002006       -11.3794996493  9.11E-04
    10 Broy./Diag. 0.10E+00    9.1     0.00002281       -11.3794449777  5.47E-05
    11 Broy./Diag. 0.10E+00   10.0     0.00001312       -11.3794994587 -5.45E-05
    12 Broy./Diag. 0.10E+00   10.6     0.00000058       -11.3795045173 -5.06E-06
    13 Broy./Diag. 0.10E+00    9.3     0.00000225       -11.3794779930  2.65E-05
    14 Broy./Diag. 0.10E+00   10.0     0.00000009       -11.3794715470  6.45E-06
    15 Broy./Diag. 0.10E+00   10.8     0.00000041       -11.3794696813  1.87E-06
    16 Broy./Diag. 0.10E+00    9.3     0.00000002       -11.3794694353  2.46E-07
    17 Broy./Diag. 0.10E+00   10.1     6.9659E-09       -11.3794694420 -6.72E-09
    18 Broy./Diag. 0.10E+00   10.6     1.8431E-09       -11.3794694048  3.72E-08
    19 Broy./Diag. 0.10E+00   10.0     3.7498E-09       -11.3794693951  9.76E-09
    20 Broy./Diag. 0.10E+00   10.2     1.2308E-10       -11.3794693955 -4.52E-10

  *** SCF run converged in    20 steps ***


  Electronic density on regular grids:         -7.9265642870        0.0734357130
  Core density on regular grids:                8.0000000000        0.0000000000
  Hard and soft densities (Lebedev):          -27.8143124279      -27.7408759009
  Total Rho_soft + Rho1_hard - Rho1_soft       -8.0000008140
  Total charge density (r-space):              -0.0000008140
  Total Rho_soft + Rho0_soft (g-space):        -0.0000008952

  Overlap energy of the core charge distribution:               0.00000002333750
  Self energy of the core charge distribution:                -26.67001585353042
  Core Hamiltonian energy:                                      8.41450347181339
  Hartree energy:                                              15.76417875239614
  Exchange-correlation energy:                                 -3.50091750801016

  GAPW| Exc from hard and soft atomic rho1:                    -0.05299612624312
  GAPW| local Eh = 1 center integrals:                         -5.33422215528391

  Total energy:                                               -11.37946939552058

 !-----------------------------------------------------------------------------!
                     Mulliken Population Analysis

 #  Atom  Element  Kind  Atomic population                           Net charge
       1     C        1          4.000000                             -0.000000
       2     C        1          4.000000                              0.000000
 # Total charge                              8.000000                 -0.000000

 !-----------------------------------------------------------------------------!

 !-----------------------------------------------------------------------------!
                           Hirshfeld Charges

  #Atom  Element  Kind  Ref Charge     Population                    Net charge
      1       C      1       4.000          4.000                        -0.000
      2       C      1       4.000          4.000                        -0.000

  Total Charge                                                           -0.000
 !-----------------------------------------------------------------------------!

 KPOINTS| Band Structure Calculation
 KPOINTS| Number of k-point sets                                               1
 KPOINTS| Number of k-points in set    1                                      34
 KPOINTS| In units of b-vector [2pi/Bohr]
 KPOINTS| Special point     1           L     0.500000     0.500000     0.500000
 KPOINTS| Special point     2       GAMMA     0.000000     0.000000     0.000000
 KPOINTS| Special point     3           X     0.000000     0.500000     0.500000
 KPOINTS| Special point     4           U     0.250000     0.625000     0.625000
#  Point 1      Spin 1:     0.50000000     0.50000000     0.50000000       0.02941176
#   Band    Energy [eV]     Occupation
       1    -3.74402250     2.00000000
       2    -1.42578186     2.00000000
       3     9.12556701     2.00000000
       4     9.12556701     2.00000000
       5    20.53220991     0.00000000
       6    20.53220991     0.00000000
       7    20.80591675     0.00000000
       8    27.75155324     0.00000000
       9    34.19238875     0.00000000
      10    37.09110434     0.00000000
      11    38.46469457     0.00000000
      12    38.46469457     0.00000000
      13    47.06767159     0.00000000
      14    47.06767159     0.00000000
      15    70.48385374     0.00000000
      16    70.48385374     0.00000000
      17    73.44262290     0.00000000
      18    73.44262290     0.00000000
      19    79.59542590     0.00000000
      20    80.39648666     0.00000000
      21    91.51188242     0.00000000
      22    91.51188242     0.00000000
      23    97.42475348     0.00000000
      24    97.42475348     0.00000000
      25   177.71921292     0.00000000
      26   216.82500049     0.00000000
#  Point 2      Spin 1:     0.45454545     0.45454545     0.45454545       0.02941176
#   Band    Energy [eV]     Occupation
       1    -4.21532887     2.00000000
       2    -0.85728056     2.00000000
       3     9.16205770     2.00000000
       4     9.16205770     2.00000000
       5    20.52214249     0.00000000
       6    20.52214249     0.00000000
       7    20.78813880     0.00000000
       8    27.74177919     0.00000000
       9    34.04983402     0.00000000
      10    37.20057110     0.00000000
      11    38.04260838     0.00000000
      12    38.04260838     0.00000000
      13    47.70103225     0.00000000
      14    47.70103225     0.00000000
      15    69.83139576     0.00000000
      16    69.83139576     0.00000000
      17    73.91340592     0.00000000
      18    73.91340592     0.00000000
      19    75.54207240     0.00000000
      20    82.15410097     0.00000000
      21    91.28201087     0.00000000
      22    91.28201087     0.00000000
      23    98.27909979     0.00000000
      24    98.27909979     0.00000000
      25   174.42094630     0.00000000
      26   221.74191589     0.00000000
#  Point 3      Spin 1:     0.40909091     0.40909091     0.40909091       0.02941176
#   Band    Energy [eV]     Occupation
       1    -5.07841603     2.00000000
       2     0.29397525     2.00000000
       3     9.27120479     2.00000000
       4     9.27120479     2.00000000
       5    20.48383844     0.00000000
       6    20.48383844     0.00000000
       7    20.73363985     0.00000000
       8    27.68275577     0.00000000
       9    33.74523648     0.00000000
      10    37.08788905     0.00000000
      11    37.08788905     0.00000000
      12    37.46602739     0.00000000
      13    49.25945065     0.00000000
      14    49.25945065     0.00000000
      15    68.19935676     0.00000000
      16    68.19935676     0.00000000
      17    71.08461913     0.00000000
      18    75.05568788     0.00000000
      19    75.05568788     0.00000000
      20    80.26214292     0.00000000
      21    90.86121006     0.00000000
      22    90.86121006     0.00000000
      23   100.56245986     0.00000000
      24   100.56245986     0.00000000
      25   175.70247545     0.00000000
      26   228.10656853     0.00000000
#  Point 4      Spin 1:     0.36363636     0.36363636     0.36363636       0.02941176
#   Band    Energy [eV]     Occupation
       1    -5.95674880     2.00000000
       2     1.64369084     2.00000000
       3     9.45188923     2.00000000
       4     9.45188923     2.00000000
       5    20.39475593     0.00000000
       6    20.39475593     0.00000000
       7    20.63781252     0.00000000
       8    27.52277776     0.00000000
       9    33.47473920     0.00000000
      10    36.05651644     0.00000000
      11    36.05651644     0.00000000
      12    37.78349597     0.00000000
      13    51.19763642     0.00000000
      14    51.19763642     0.00000000
      15    65.84446950     0.00000000
      16    65.84446950     0.00000000
      17    67.13035188     0.00000000
      18    76.57965298     0.00000000
      19    76.75100476     0.00000000
      20    76.75100476     0.00000000
      21    90.53965597     0.00000000
      22    90.53965597     0.00000000
      23   103.98261719     0.00000000
      24   103.98261719     0.00000000
      25   186.06226873     0.00000000
      26   231.22385995     0.00000000
#  Point 5      Spin 1:     0.31818182     0.31818182     0.31818182       0.02941176
#   Band    Energy [eV]     Occupation
       1    -6.76735697     2.00000000
       2     3.09868561     2.00000000
       3     9.70171937     2.00000000
       4     9.70171937     2.00000000
       5    20.22417415     0.00000000
       6    20.22417415     0.00000000
       7    20.49067629     0.00000000
       8    27.24025898     0.00000000
       9    33.33497854     0.00000000
      10    35.21081945     0.00000000
      11    35.21081945     0.00000000
      12    38.07490833     0.00000000
      13    53.11192973     0.00000000
      14    53.11192973     0.00000000
      15    62.90515049     0.00000000
      16    62.90515049     0.00000000
      17    63.68609771     0.00000000
      18    73.75770495     0.00000000
      19    79.00738142     0.00000000
      20    79.00738142     0.00000000
      21    90.38945915     0.00000000
      22    90.38945915     0.00000000
      23   108.51995543     0.00000000
      24   108.51995543     0.00000000
      25   199.58319606     0.00000000
      26   231.91263776     0.00000000
#  Point 6      Spin 1:     0.27272727     0.27272727     0.27272727       0.02941176
#   Band    Energy [eV]     Occupation
       1    -7.48576204     2.00000000
       2     4.62031226     2.00000000
       3    10.01604226     2.00000000
       4    10.01604226     2.00000000
       5    19.94525802     0.00000000
       6    19.94525802     0.00000000
       7    20.27570800     0.00000000
       8    26.85857067     0.00000000
       9    33.30716152     0.00000000
      10    34.68325600     0.00000000
      11    34.68325600     0.00000000
      12    38.31642958     0.00000000
      13    54.63951518     0.00000000
      14    54.63951518     0.00000000
      15    59.66355472     0.00000000
      16    59.66355472     0.00000000
      17    61.11548852     0.00000000
      18    72.28419879     0.00000000
      19    81.66758121     0.00000000
      20    81.66758121     0.00000000
      21    90.39369059     0.00000000
      22    90.39369059     0.00000000
      23   114.24106583     0.00000000
      24   114.24106583     0.00000000
      25   208.51568163     0.00000000
      26   232.79827286     0.00000000
#  Point 7      Spin 1:     0.22727273     0.22727273     0.22727273       0.02941176
#   Band    Energy [eV]     Occupation
       1    -8.10164522     2.00000000
       2     6.17721345     2.00000000
       3    10.38609484     2.00000000
       4    10.38609484     2.00000000
       5    19.55039089     0.00000000
       6    19.55039089     0.00000000
       7    19.97062785     0.00000000
       8    26.43124850     0.00000000
       9    33.29541913     0.00000000
      10    34.53821045     0.00000000
      11    34.53821045     0.00000000
      12    38.58650891     0.00000000
      13    54.46439473     0.00000000
      14    54.46439473     0.00000000
      15    57.54304492     0.00000000
      16    57.54304492     0.00000000
      17    59.63352111     0.00000000
      18    71.94960352     0.00000000
      19    84.36844207     0.00000000
      20    84.36844207     0.00000000
      21    90.51539552     0.00000000
      22    90.51539552     0.00000000
      23   120.96047476     0.00000000
      24   120.96047476     0.00000000
      25   206.57793385     0.00000000
      26   236.75643106     0.00000000
#  Point 8      Spin 1:     0.18181818     0.18181818     0.18181818       0.02941176
#   Band    Energy [eV]     Occupation
       1    -8.60956510     2.00000000
       2     7.73152953     2.00000000
       3    10.79584636     2.00000000
[...]
      19    80.59106829     0.00000000
      20    80.59111310     0.00000000
      21    88.88914914     0.00000000
      22    96.12687251     0.00000000
      23   114.13639883     0.00000000
      24   114.13640156     0.00000000
      25   190.57917112     0.00000000
      26   227.14765853     0.00000000
#  Point 21     Spin 1:     0.00000000     0.40909091     0.40909091       0.02941176
#   Band    Energy [eV]     Occupation
       1    -3.55568266     2.00000000
       2     2.19728496     2.00000000
       3     5.93538893     2.00000000
       4     5.93542131     2.00000000
       5    16.29018140     0.00000000
       6    18.31188608     0.00000000
       7    27.85560621     0.00000000
       8    27.85561028     0.00000000
       9    34.62753957     0.00000000
      10    35.75241718     0.00000000
      11    48.08248095     0.00000000
      12    48.40383419     0.00000000
      13    48.40388898     0.00000000
      14    60.47848529     0.00000000
      15    60.90111188     0.00000000
      16    60.90113216     0.00000000
      17    70.02126094     0.00000000
      18    78.50944102     0.00000000
      19    78.50948402     0.00000000
      20    80.08752525     0.00000000
      21    93.50020679     0.00000000
      22    97.23279092     0.00000000
      23   119.60769740     0.00000000
      24   119.60771378     0.00000000
      25   172.73917637     0.00000000
      26   227.43592314     0.00000000
#  Point 22     Spin 1:     0.00000000     0.45454545     0.45454545       0.02941176
#   Band    Energy [eV]     Occupation
       1    -2.23536050     2.00000000
       2     0.66607518     2.00000000
       3     5.71782937     2.00000000
       4     5.71786099     2.00000000
       5    16.52663732     0.00000000
       6    17.54115038     0.00000000
       7    28.55426005     0.00000000
       8    28.55426299     0.00000000
       9    35.13262644     0.00000000
      10    35.68239693     0.00000000
      11    47.82472077     0.00000000
      12    47.82475868     0.00000000
      13    50.60280701     0.00000000
      14    56.80800950     0.00000000
      15    65.93080172     0.00000000
      16    65.93083024     0.00000000
      17    73.10678774     0.00000000
      18    75.68070434     0.00000000
      19    75.68074619     0.00000000
      20    81.17599741     0.00000000
      21    97.56659341     0.00000000
      22   101.19711213     0.00000000
      23   130.39996400     0.00000000
      24   130.40001676     0.00000000
      25   166.99895489     0.00000000
      26   210.27355426     0.00000000
#  Point 23     Spin 1:     0.00000000     0.50000000     0.50000000       0.02941176
#   Band    Energy [eV]     Occupation
       1    -0.82086067     2.00000000
       2    -0.82071361     2.00000000
       3     5.64703597     2.00000000
       4     5.64706730     2.00000000
       5    16.94334291     0.00000000
       6    16.94342522     0.00000000
       7    28.80442046     0.00000000
       8    28.80442254     0.00000000
       9    35.48005214     0.00000000
      10    35.48009157     0.00000000
      11    47.68996537     0.00000000
      12    47.68999532     0.00000000
      13    53.50974892     0.00000000
      14    53.50981316     0.00000000
      15    70.70962351     0.00000000
      16    70.70964124     0.00000000
      17    72.03619965     0.00000000
      18    72.03625432     0.00000000
      19    77.46606609     0.00000000
      20    77.46609671     0.00000000
      21   101.08337836     0.00000000
      22   101.08338513     0.00000000
      23   139.01881381     0.00000000
      24   139.01889860     0.00000000
      25   183.47427874     0.00000000
      26   183.47428329     0.00000000
#  Point 24     Spin 1:     0.02272727     0.51136364     0.51136364       0.02941176
#   Band    Energy [eV]     Occupation
       1    -0.81712961     2.00000000
       2    -0.81215566     2.00000000
       3     5.59665001     2.00000000
       4     5.65460695     2.00000000
       5    16.95046688     0.00000000
       6    17.01693032     0.00000000
       7    28.78027972     0.00000000
       8    28.79366987     0.00000000
       9    35.41889906     0.00000000
      10    35.49050481     0.00000000
      11    47.30295954     0.00000000
      12    47.75772461     0.00000000
      13    53.49510030     0.00000000
      14    53.87324061     0.00000000
      15    70.72388875     0.00000000
      16    70.75463829     0.00000000
      17    71.65921067     0.00000000
      18    72.12372674     0.00000000
      19    77.45588933     0.00000000
      20    77.70298280     0.00000000
      21   100.99082736     0.00000000
      22   101.26988385     0.00000000
      23   137.33227259     0.00000000
      24   138.86037199     0.00000000
      25   183.34922891     0.00000000
      26   184.97890911     0.00000000
#  Point 25     Spin 1:     0.04545455     0.52272727     0.52272727       0.02941176
#   Band    Energy [eV]     Occupation
       1    -0.80629368     2.00000000
       2    -0.78648370     2.00000000
       3     5.44991827     2.00000000
       4     5.67739928     2.00000000
       5    16.97189479     0.00000000
       6    17.23317808     0.00000000
       7    28.70831128     0.00000000
       8    28.76159389     0.00000000
       9    35.23997306     0.00000000
      10    35.52173598     0.00000000
      11    46.38830931     0.00000000
      12    47.95685693     0.00000000
      13    53.45345477     0.00000000
      14    54.71821286     0.00000000
      15    70.72034282     0.00000000
      16    70.76177760     0.00000000
      17    70.89221056     0.00000000
      18    72.38208819     0.00000000
      19    77.42537211     0.00000000
      20    78.21856032     0.00000000
      21   100.72032867     0.00000000
      22   101.78429149     0.00000000
      23   133.05825178     0.00000000
      24   138.39589745     0.00000000
      25   182.99098320     0.00000000
      26   188.80623854     0.00000000
#  Point 26     Spin 1:     0.06818182     0.53409091     0.53409091       0.02941176
#   Band    Energy [eV]     Occupation
       1    -0.78947117     2.00000000
       2    -0.74370365     2.00000000
       3     5.21924313     2.00000000
       4     5.71559629     2.00000000
       5    17.00777929     0.00000000
       6    17.58059352     0.00000000
       7    28.58985278     0.00000000
       8    28.70874288     0.00000000
       9    34.95596032     0.00000000
      10    35.57334367     0.00000000
      11    45.29079265     0.00000000
      12    48.27649584     0.00000000
      13    53.39173761     0.00000000
      14    55.70354910     0.00000000
      15    69.51008429     0.00000000
      16    70.81191535     0.00000000
      17    71.12914122     0.00000000
      18    72.79936852     0.00000000
      19    77.37547931     0.00000000
      20    78.71907061     0.00000000
      21   100.29143302     0.00000000
      22   102.45339539     0.00000000
      23   127.71181974     0.00000000
      24   137.65709105     0.00000000
      25   182.44745073     0.00000000
      26   193.75282754     0.00000000
#  Point 27     Spin 1:     0.09090909     0.54545455     0.54545455       0.02941176
#   Band    Energy [eV]     Occupation
       1    -0.76868837     2.00000000
       2    -0.68382647     2.00000000
       3     4.92205284     2.00000000
       4     5.76936743     2.00000000
       5    17.05832765     0.00000000
       6    18.04320334     0.00000000
       7    28.42705649     0.00000000
       8    28.63603276     0.00000000
       9    34.58436240     0.00000000
      10    35.64459487     0.00000000
      11    44.18481143     0.00000000
      12    48.70196781     0.00000000
      13    53.31959874     0.00000000
      14    56.66278075     0.00000000
      15    68.20008750     0.00000000
      16    70.86355355     0.00000000
      17    71.47289345     0.00000000
      18    73.35789244     0.00000000
      19    77.31156674     0.00000000
      20    79.03866186     0.00000000
      21    99.73111327     0.00000000
      22   102.84655540     0.00000000
      23   122.70789118     0.00000000
      24   136.69146716     0.00000000
      25   181.79026492     0.00000000
      26   199.00249742     0.00000000
#  Point 28     Spin 1:     0.11363636     0.55681818     0.55681818       0.02941176
#   Band    Energy [eV]     Occupation
       1    -0.74714669     2.00000000
       2    -0.60686933     2.00000000
       3     4.57800416     2.00000000
       4     5.83877103     2.00000000
       5    17.12374417     0.00000000
       6    18.60365937     0.00000000
       7    28.22278009     0.00000000
       8    28.54473594     0.00000000
       9    34.14416917     0.00000000
      10    35.73435636     0.00000000
      11    43.13453699     0.00000000
      12    49.21815931     0.00000000
      13    53.24757027     0.00000000
      14    57.54351259     0.00000000
      15    66.87557098     0.00000000
      16    70.91184825     0.00000000
      17    71.92288311     0.00000000
      18    74.03666064     0.00000000
      19    77.25199776     0.00000000
      20    79.11068511     0.00000000
      21    99.06761204     0.00000000
      22   102.14700375     0.00000000
      23   119.39212317     0.00000000
      24   135.55615705     0.00000000
      25   181.10586671     0.00000000
      26   204.16989719     0.00000000
#  Point 29     Spin 1:     0.13636364     0.56818182     0.56818182       0.02941176
#   Band    Energy [eV]     Occupation
       1    -0.72963362     2.00000000
       2    -0.51285686     2.00000000
       3     4.20722062     2.00000000
       4     5.92371609     2.00000000
       5    17.20416993     0.00000000
       6    19.24527088     0.00000000
       7    27.98044697     0.00000000
       8    28.43644648     0.00000000
       9    33.65343649     0.00000000
      10    35.84103624     0.00000000
      11    42.15614357     0.00000000
      12    49.81203912     0.00000000
      13    53.18543744     0.00000000
      14    58.34312225     0.00000000
      15    65.57946360     0.00000000
      16    70.95855353     0.00000000
      17    72.44961537     0.00000000
      18    74.81360023     0.00000000
      19    77.24876398     0.00000000
      20    78.91748412     0.00000000
      21    98.32522382     0.00000000
      22    99.76973429     0.00000000
      23   118.57370594     0.00000000
      24   134.31144433     0.00000000
      25   180.48683502     0.00000000
      26   209.11772117     0.00000000
#  Point 30     Spin 1:     0.15909091     0.57954545     0.57954545       0.02941176
#   Band    Energy [eV]     Occupation
       1    -0.72307257     2.00000000
       2    -0.40182213     2.00000000
       3     3.82979313     2.00000000
       4     6.02396892     2.00000000
       5    17.29963073     0.00000000
       6    19.95281171     0.00000000
       7    27.70388877     0.00000000
       8    28.31301828     0.00000000
       9    33.12808970     0.00000000
      10    35.96255260     0.00000000
      11    41.24731962     0.00000000
      12    50.47410603     0.00000000
      13    53.14120410     0.00000000
      14    59.07714611     0.00000000
      15    64.33358207     0.00000000
      16    71.00939199     0.00000000
      17    72.95225988     0.00000000
      18    75.66723011     0.00000000
      19    77.42908243     0.00000000
      20    78.45841863     0.00000000
      21    96.33587251     0.00000000
      22    97.52162754     0.00000000
      23   119.67770286     0.00000000
      24   133.01532636     0.00000000
      25   180.02288557     0.00000000
      26   213.82142858     0.00000000
#  Point 31     Spin 1:     0.18181818     0.59090909     0.59090909       0.02941176
#   Band    Energy [eV]     Occupation
       1    -0.73708737     2.00000000
       2    -0.27380731     2.00000000
       3     3.46610715     2.00000000
       4     6.13917597     2.00000000
       5    17.40999909     0.00000000
       6    20.71237321     0.00000000
       7    27.39718478     0.00000000
       8    28.17648242     0.00000000
       9    32.58168305     0.00000000
      10    36.09633442     0.00000000
      11    40.40025614     0.00000000
      12    51.19895975     0.00000000
      13    53.12066959     0.00000000
      14    59.76502825     0.00000000
      15    63.14850111     0.00000000
      16    71.07076239     0.00000000
      17    73.23194092     0.00000000
      18    76.57765523     0.00000000
      19    77.73164621     0.00000000
      20    78.01946164     0.00000000
      21    92.76312863     0.00000000
      22    96.66879864     0.00000000
      23   121.73897760     0.00000000
      24   131.71974865     0.00000000
      25   179.78813956     0.00000000
      26   218.28988746     0.00000000
#  Point 32     Spin 1:     0.20454545     0.60227273     0.60227273       0.02941176
#   Band    Energy [eV]     Occupation
       1    -0.78415219     2.00000000
       2    -0.12886411     2.00000000
       3     3.13717972     2.00000000
       4     6.26888473     2.00000000
       5    17.53497120     0.00000000
       6    21.51060595     0.00000000
       7    27.06451139     0.00000000
       8    28.02895648     0.00000000
       9    32.02574384     0.00000000
      10    36.23934936     0.00000000
      11    39.60692919     0.00000000
      12    51.98520361     0.00000000
      13    53.12746245     0.00000000
      14    60.42435953     0.00000000
      15    62.02861691     0.00000000
      16    71.14748893     0.00000000
      17    73.12201000     0.00000000
      18    76.72959429     0.00000000
      19    77.52700035     0.00000000
      20    79.20798609     0.00000000
      21    89.53431962     0.00000000
      22    95.77873557     0.00000000
      23   124.18466834     0.00000000
      24   130.46859595     0.00000000
      25   179.81903794     0.00000000
      26   222.52083494     0.00000000
#  Point 33     Spin 1:     0.22727273     0.61363636     0.61363636       0.02941176
#   Band    Energy [eV]     Occupation
       1    -0.87842604     2.00000000
       2     0.03294607     2.00000000
       3     2.86383323     2.00000000
       4     6.41255688     2.00000000
       5    17.67405566     0.00000000
       6    22.33357643     0.00000000
       7    26.71001231     0.00000000
       8    27.87256034     0.00000000
       9    31.47046766     0.00000000
      10    36.38814847     0.00000000
      11    38.86085608     0.00000000
      12    52.83472210     0.00000000
      13    53.16333671     0.00000000
      14    60.97496702     0.00000000
      15    61.06906104     0.00000000
      16    71.24197673     0.00000000
      17    72.63306158     0.00000000
      18    75.45197145     0.00000000
      19    78.49946045     0.00000000
      20    80.97960116     0.00000000
      21    86.82990335     0.00000000
      22    94.87813694     0.00000000
      23   126.72073492     0.00000000
      24   129.29714168     0.00000000
      25   180.07661232     0.00000000
      26   226.47862481     0.00000000
#  Point 34     Spin 1:     0.25000000     0.62500000     0.62500000       0.02941176
#   Band    Energy [eV]     Occupation
       1    -1.03235503     2.00000000
       2     0.21155190     2.00000000
       3     2.66364747     2.00000000
       4     6.56957397     2.00000000
       5    17.82656981     0.00000000
       6    23.16531957     0.00000000
       7    26.33769550     0.00000000
       8    27.70934992     0.00000000
       9    30.92576240     0.00000000
      10    36.53891823     0.00000000
      11    38.15736971     0.00000000
      12    53.22857126     0.00000000
      13    53.75127433     0.00000000
      14    59.98686303     0.00000000
      15    61.70915916     0.00000000
      16    71.35443547     0.00000000
      17    71.84615353     0.00000000
      18    73.93185130     0.00000000
      19    79.48113425     0.00000000
      20    83.16937576     0.00000000
      21    84.66971384     0.00000000
      22    94.04916930     0.00000000
      23   128.23249590     0.00000000
      24   129.18421644     0.00000000
      25   180.39138580     0.00000000
      26   230.08822534     0.00000000
 KPOINTS| Time for k-point line                                            0.617
  
 -------------------------------------------------------------------------------
 -                                                                             -
 -                          BANDSTRUCTURE CALCULATION                          -
 -                                                                             -
 -------------------------------------------------------------------------------
  
 Number of occupied molecular orbitals (MOs) = Number of occupied bands        4
 Number of unoccupied (= virtual) MOs = Number of unoccupied bands            22
 Number of Gaussian basis functions for MOs                                   26
 Number of cells considered in the DFT calculation                          1637
 Number of cells for G, , W,                                               343
 Number of special k-points for the bandstructure                              4
 Number of k-points for the bandstructure                                    606
  
 -------------------------------------------------------------------------------
 -                                                                             -
 -                                GW CALCULATION                               -
 -                                                                             -
 -------------------------------------------------------------------------------
  
 Input: Number of time/freq. points                                            5
 Input: _max for fitting (i) (eV)                                        10.0
 Input: Filter threshold for sparse tensor operations                    1.0E-09
 Input: Apply Hedin shift                                                      F
  
 Number of auxiliary Gaussian basis functions for , , W                     26
 Cutoff radius for the truncated Coulomb operator in ^x:                  7.2 
 Cutoff radius for the truncated Coulomb operator in RI metric:            7.0 
 Regularization parameter of RI                                          1.0E-02
 Lattice sum size for V(k):                                                    3
  
 K-point mesh 1 for , , W                                            8   8   8
 K-point mesh 2 for , , W (for k-point extrapolation of W)          16  16  16
 Approximate the k-point extrapolation                                         F
 Radius of atomic orbitals                                                 8.1 
 Radius of RI functions                                                    4.3 
 Number of cells for 3c integrals                                           2275
 Number of cell pairs for 3c integrals                                    605729
 
 Input: Available memory per MPI process                                240.0 GB
 Used memory per MPI process before GW run                                0.8 GB
 Memory of three-center integrals                                        85.2 GB
 Group size for tensor operations                                              1
 Number of cells R                                                        17233
 Min. abs. eigenvalue of RI metric matrix M(k)                           9.0E-05
 Max. abs. eigenvalue of RI metric matrix M(k)                           8.8E+01
 Max. condition number of M(k)                                           7.1E+06
 
 SCF direct band gap (eV)                                                   4.22
 Max. SCF eigval diff. (eV)                                               254.24
 E-Range for minimax grid                                                  60.28
 Number of Pad parameters for analytic continuation:                          2
 
