 DBCSR| CPU Multiplication driver                                           XSMM (U)
 DBCSR| Multrec recursion limit                                              512 (U)
 DBCSR| Multiplication stack size                                           1000 (D)
 DBCSR| Maximum elements for images                                    UNLIMITED (U)
 DBCSR| Multiplicative factor virtual images                                   1 (U)
 DBCSR| Use multiplication densification                                       T (D)
 DBCSR| Multiplication size stacks                                             3 (U)
 DBCSR| Use memory pool for CPU allocation                                     F (U)
 DBCSR| Number of 3D layers                                               SINGLE (U)
 DBCSR| Use MPI memory allocation                                              F (U)
 DBCSR| Use RMA algorithm                                                      F (U)
 DBCSR| Use Communication thread                                               T (U)
 DBCSR| Communication thread load                                             60 (D)
 DBCSR| MPI: My process id                                                     0
 DBCSR| MPI: Number of processes                                             128
 DBCSR| OMP: Current number of threads                                         8
 DBCSR| OMP: Max number of threads                                             8
 DBCSR| Split modifier for TAS multiplication algorithm                  1.0E+00 (U)


  **** **** ******  **  PROGRAM STARTED AT               2024-08-16 17:46:24.804
 ***** ** ***  *** **   PROGRAM STARTED ON                              n2cn0174
 **    ****   ******    PROGRAM STARTED BY                              metdyn02
 ***** **    ** ** **   PROGRAM PROCESS ID                               2375333
  **** **  *******  **  PROGRAM STARTED IN /scratch/hpc-prf-metdyn/metdyn02_Remi
                                           /01_H2_GW_test/01_1x1x1

 CP2K| version string:                 CP2K version 2024.2 (Development Version)
 CP2K| source code revision number:                                  git:7adf92c
 CP2K| cp2kflags: omp libint fftw3 libxc libgrpp elpa parallel scalapack mpi_f08
 CP2K|             cosma deepmd xsmm plumed2 has_ieee_exceptions spglib sirius c
 CP2K|            check_diag libvori libbqb libvdwxc hdf5
 CP2K| is freely available from                            https://www.cp2k.org/
 CP2K| Program compiled at                         Mon Aug 12 11:44:35 CEST 2024
 CP2K| Program compiled on                                              n2login2
 CP2K| Program compiled for                                                local
 CP2K| Data directory path    /opt/software/pc2/EB-SW/software/CP2K/2024.1-foss-
 CP2K| Input file name                                                    GW.inp

 GLOBAL| Force Environment number                                              1
 GLOBAL| Basis set file name                                      BASIS_RI_cc-TZ
 GLOBAL| Potential file name            /pc2/groups/hpc-prf-metdyn/metdyn02_Remi
 GLOBAL| MM Potential file name                                     MM_POTENTIAL
 GLOBAL| Coordinate file name                                      __STD_INPUT__
 GLOBAL| Method name                                                        CP2K
 GLOBAL| Project name                                                         H2
 GLOBAL| Run type                                                         ENERGY
 GLOBAL| FFT library                                                       FFTW3
 GLOBAL| Diagonalization library                                            ELPA
 GLOBAL| DGEMM library                                                      BLAS
 GLOBAL| Minimum number of eigenvectors for ELPA usage                        16
 GLOBAL| Orthonormality check for eigenvectors enabled                 5.000E-14
 GLOBAL| Matrix multiplication library                                     COSMA
 GLOBAL| All-to-all communication in single precision                          F
 GLOBAL| FFTs using library dependent lengths                                  F
 GLOBAL| Grid backend                                                       AUTO
 GLOBAL| Global print level                                               MEDIUM
 GLOBAL| MPI I/O enabled                                                       T
 GLOBAL| Total number of message passing processes                           128
 GLOBAL| Number of threads for this process                                    8
 GLOBAL| This output is from process                                           0
 GLOBAL| Stack size for threads created by OpenMP (OMP_STACKSIZE)        default
 GLOBAL| CPU model name                          AMD EPYC 7763 64-Core Processor
 GLOBAL| CPUID                                                              1002

 MEMORY| system memory details [Kb]
 MEMORY|                        rank 0           min           max       average
 MEMORY| MemTotal            263899264     263899260     263899264     263899262
 MEMORY| MemFree             236260564     236260564     251324720     247303538
 MEMORY| Buffers                299396         26484        350208        227932
 MEMORY| Cached               16295176       4590204      16295176       7359201
 MEMORY| Slab                  3393560       1521284       5565792       2844780
 MEMORY| SReclaimable           541692        287184       2362304        520447
 MEMORY| MemLikelyFree       253396828     253396828     257289960     255411120


 *** Fundamental physical constants (SI units) ***

 *** Literature: B. J. Mohr and B. N. Taylor,
 ***             CODATA recommended values of the fundamental physical
 ***             constants: 2006, Web Version 5.1
 ***             http://physics.nist.gov/constants

 Speed of light in vacuum [m/s]                             2.99792458000000E+08
 Magnetic constant or permeability of vacuum [N/A**2]       1.25663706143592E-06
 Electric constant or permittivity of vacuum [F/m]          8.85418781762039E-12
 Planck constant (h) [J*s]                                  6.62606896000000E-34
 Planck constant (h-bar) [J*s]                              1.05457162825177E-34
 Elementary charge [C]                                      1.60217648700000E-19
 Electron mass [kg]                                         9.10938215000000E-31
 Electron g factor [ ]                                     -2.00231930436220E+00
 Proton mass [kg]                                           1.67262163700000E-27
 Fine-structure constant                                    7.29735253760000E-03
 Rydberg constant [1/m]                                     1.09737315685270E+07
 Avogadro constant [1/mol]                                  6.02214179000000E+23
 Boltzmann constant [J/K]                                   1.38065040000000E-23
 Atomic mass unit [kg]                                      1.66053878200000E-27
 Bohr radius [m]                                            5.29177208590000E-11

 *** Conversion factors ***

 [u] -> [a.u.]                                              1.82288848426455E+03
 [Angstrom] -> [Bohr] = [a.u.]                              1.88972613288564E+00
 [a.u.] = [Bohr] -> [Angstrom]                              5.29177208590000E-01
 [a.u.] -> [s]                                              2.41888432650478E-17
 [a.u.] -> [fs]                                             2.41888432650478E-02
 [a.u.] -> [J]                                              4.35974393937059E-18
 [a.u.] -> [N]                                              8.23872205491840E-08
 [a.u.] -> [K]                                              3.15774647902944E+05
 [a.u.] -> [kJ/mol]                                         2.62549961709828E+03
 [a.u.] -> [kcal/mol]                                       6.27509468713739E+02
 [a.u.] -> [Pa]                                             2.94210107994716E+13
 [a.u.] -> [bar]                                            2.94210107994716E+08
 [a.u.] -> [atm]                                            2.90362800883016E+08
 [a.u.] -> [eV]                                             2.72113838565563E+01
 [a.u.] -> [Hz]                                             6.57968392072181E+15
 [a.u.] -> [1/cm] (wave numbers)                            2.19474631370540E+05
 [a.u./Bohr**2] -> [1/cm]                                   5.14048714338585E+03
 

 CELL_TOP| Volume [angstrom^3]:                                        83.775487
 CELL_TOP| Vector a [angstrom     3.900     0.000     0.000   |a| =     3.900000
 CELL_TOP| Vector b [angstrom    -1.950     3.377     0.000   |b| =     3.900000
 CELL_TOP| Vector c [angstrom     0.000     0.000     6.360   |c| =     6.360000
 CELL_TOP| Angle (b,c), alpha [degree]:                                90.000000
 CELL_TOP| Angle (a,c), beta  [degree]:                                90.000000
 CELL_TOP| Angle (a,b), gamma [degree]:                               120.000000
 CELL_TOP| Numerically orthorhombic:                                          NO
 CELL_TOP| Periodicity                                                       XYZ

 GENERATE|  Preliminary Number of Bonds generated:                             0
 GENERATE|  Achieved consistency in connectivity generation.

 CELL| Volume [angstrom^3]:                                            83.775487
 CELL| Vector a [angstrom]:       3.900     0.000     0.000   |a| =     3.900000
 CELL| Vector b [angstrom]:      -1.950     3.377     0.000   |b| =     3.900000
 CELL| Vector c [angstrom]:       0.000     0.000     6.360   |c| =     6.360000
 CELL| Angle (b,c), alpha [degree]:                                    90.000000
 CELL| Angle (a,c), beta  [degree]:                                    90.000000
 CELL| Angle (a,b), gamma [degree]:                                   120.000000
 CELL| Numerically orthorhombic:                                              NO
 CELL| Periodicity                                                           XYZ

 CELL_REF| Volume [angstrom^3]:                                        83.775487
 CELL_REF| Vector a [angstrom     3.900     0.000     0.000   |a| =     3.900000
 CELL_REF| Vector b [angstrom    -1.950     3.377     0.000   |b| =     3.900000
 CELL_REF| Vector c [angstrom     0.000     0.000     6.360   |c| =     6.360000
 CELL_REF| Angle (b,c), alpha [degree]:                                90.000000
 CELL_REF| Angle (a,c), beta  [degree]:                                90.000000
 CELL_REF| Angle (a,b), gamma [degree]:                               120.000000
 CELL_REF| Numerically orthorhombic:                                          NO
 CELL_REF| Periodicity                                                       XYZ

 *******************************************************************************
                                    Kpoints
 *******************************************************************************
 BRILLOUIN| K-point scheme                                        Monkhorst-Pack
 BRILLOUIN| K-Point grid                                            10   10    6
 BRILLOUIN| Accuracy in Symmetry determination                      0.100000E-05
 BRILLOUIN| K-Point point group symmetrization                               OFF
 BRILLOUIN| Wavefunction type                                            COMPLEX
 BRILLOUIN| List of Kpoints [2 Pi/Bohr]                                      300
 BRILLOUIN| Number           Weight            X              Y              Z
 BRILLOUIN|     1           0.00333       -0.45000       -0.45000       -0.41667
 BRILLOUIN|     2           0.00333       -0.45000       -0.45000       -0.25000
 BRILLOUIN|     3           0.00333       -0.45000       -0.45000       -0.08333
 BRILLOUIN|     4           0.00333       -0.45000       -0.45000        0.08333
 BRILLOUIN|     5           0.00333       -0.45000       -0.45000        0.25000
 BRILLOUIN|     6           0.00333       -0.45000       -0.45000        0.41667
 BRILLOUIN|     7           0.00333       -0.45000       -0.35000       -0.41667
 BRILLOUIN|     8           0.00333       -0.45000       -0.35000       -0.25000
 BRILLOUIN|     9           0.00333       -0.45000       -0.35000       -0.08333
 BRILLOUIN|    10           0.00333       -0.45000       -0.35000        0.08333
 BRILLOUIN|    11           0.00333       -0.45000       -0.35000        0.25000
 BRILLOUIN|    12           0.00333       -0.45000       -0.35000        0.41667
 BRILLOUIN|    13           0.00333       -0.45000       -0.25000       -0.41667
 BRILLOUIN|    14           0.00333       -0.45000       -0.25000       -0.25000
 BRILLOUIN|    15           0.00333       -0.45000       -0.25000       -0.08333
 BRILLOUIN|    16           0.00333       -0.45000       -0.25000        0.08333
 BRILLOUIN|    17           0.00333       -0.45000       -0.25000        0.25000
 BRILLOUIN|    18           0.00333       -0.45000       -0.25000        0.41667
 BRILLOUIN|    19           0.00333       -0.45000       -0.15000       -0.41667
 BRILLOUIN|    20           0.00333       -0.45000       -0.15000       -0.25000
 BRILLOUIN|    21           0.00333       -0.45000       -0.15000       -0.08333
 BRILLOUIN|    22           0.00333       -0.45000       -0.15000        0.08333
 BRILLOUIN|    23           0.00333       -0.45000       -0.15000        0.25000
 BRILLOUIN|    24           0.00333       -0.45000       -0.15000        0.41667
 BRILLOUIN|    25           0.00333       -0.45000       -0.05000       -0.41667
 BRILLOUIN|    26           0.00333       -0.45000       -0.05000       -0.25000
 BRILLOUIN|    27           0.00333       -0.45000       -0.05000       -0.08333
 BRILLOUIN|    28           0.00333       -0.45000       -0.05000        0.08333
 BRILLOUIN|    29           0.00333       -0.45000       -0.05000        0.25000
 BRILLOUIN|    30           0.00333       -0.45000       -0.05000        0.41667
 BRILLOUIN|    31           0.00333       -0.45000        0.05000       -0.41667
 BRILLOUIN|    32           0.00333       -0.45000        0.05000       -0.25000
 BRILLOUIN|    33           0.00333       -0.45000        0.05000       -0.08333
 BRILLOUIN|    34           0.00333       -0.45000        0.05000        0.08333
 BRILLOUIN|    35           0.00333       -0.45000        0.05000        0.25000
 BRILLOUIN|    36           0.00333       -0.45000        0.05000        0.41667
 BRILLOUIN|    37           0.00333       -0.45000        0.15000       -0.41667
 BRILLOUIN|    38           0.00333       -0.45000        0.15000       -0.25000
 BRILLOUIN|    39           0.00333       -0.45000        0.15000       -0.08333
 BRILLOUIN|    40           0.00333       -0.45000        0.15000        0.08333
 BRILLOUIN|    41           0.00333       -0.45000        0.15000        0.25000
 BRILLOUIN|    42           0.00333       -0.45000        0.15000        0.41667
 BRILLOUIN|    43           0.00333       -0.45000        0.25000       -0.41667
 BRILLOUIN|    44           0.00333       -0.45000        0.25000       -0.25000
 BRILLOUIN|    45           0.00333       -0.45000        0.25000       -0.08333
 BRILLOUIN|    46           0.00333       -0.45000        0.25000        0.08333
 BRILLOUIN|    47           0.00333       -0.45000        0.25000        0.25000
 BRILLOUIN|    48           0.00333       -0.45000        0.25000        0.41667
 BRILLOUIN|    49           0.00333       -0.45000        0.35000       -0.41667
 BRILLOUIN|    50           0.00333       -0.45000        0.35000       -0.25000
 BRILLOUIN|    51           0.00333       -0.45000        0.35000       -0.08333
 BRILLOUIN|    52           0.00333       -0.45000        0.35000        0.08333
 BRILLOUIN|    53           0.00333       -0.45000        0.35000        0.25000
 BRILLOUIN|    54           0.00333       -0.45000        0.35000        0.41667
 BRILLOUIN|    55           0.00333       -0.45000        0.45000       -0.41667
 BRILLOUIN|    56           0.00333       -0.45000        0.45000       -0.25000
 BRILLOUIN|    57           0.00333       -0.45000        0.45000       -0.08333
 BRILLOUIN|    58           0.00333       -0.45000        0.45000        0.08333
 BRILLOUIN|    59           0.00333       -0.45000        0.45000        0.25000
 BRILLOUIN|    60           0.00333       -0.45000        0.45000        0.41667
 BRILLOUIN|    61           0.00333       -0.35000       -0.45000       -0.41667
 BRILLOUIN|    62           0.00333       -0.35000       -0.45000       -0.25000
 BRILLOUIN|    63           0.00333       -0.35000       -0.45000       -0.08333
 BRILLOUIN|    64           0.00333       -0.35000       -0.45000        0.08333
 BRILLOUIN|    65           0.00333       -0.35000       -0.45000        0.25000
 BRILLOUIN|    66           0.00333       -0.35000       -0.45000        0.41667
 BRILLOUIN|    67           0.00333       -0.35000       -0.35000       -0.41667
 BRILLOUIN|    68           0.00333       -0.35000       -0.35000       -0.25000
 BRILLOUIN|    69           0.00333       -0.35000       -0.35000       -0.08333
 BRILLOUIN|    70           0.00333       -0.35000       -0.35000        0.08333
 BRILLOUIN|    71           0.00333       -0.35000       -0.35000        0.25000
 BRILLOUIN|    72           0.00333       -0.35000       -0.35000        0.41667
 BRILLOUIN|    73           0.00333       -0.35000       -0.25000       -0.41667
 BRILLOUIN|    74           0.00333       -0.35000       -0.25000       -0.25000
 BRILLOUIN|    75           0.00333       -0.35000       -0.25000       -0.08333
 BRILLOUIN|    76           0.00333       -0.35000       -0.25000        0.08333
 BRILLOUIN|    77           0.00333       -0.35000       -0.25000        0.25000
 BRILLOUIN|    78           0.00333       -0.35000       -0.25000        0.41667
 BRILLOUIN|    79           0.00333       -0.35000       -0.15000       -0.41667
 BRILLOUIN|    80           0.00333       -0.35000       -0.15000       -0.25000
 BRILLOUIN|    81           0.00333       -0.35000       -0.15000       -0.08333
 BRILLOUIN|    82           0.00333       -0.35000       -0.15000        0.08333
 BRILLOUIN|    83           0.00333       -0.35000       -0.15000        0.25000
 BRILLOUIN|    84           0.00333       -0.35000       -0.15000        0.41667
 BRILLOUIN|    85           0.00333       -0.35000       -0.05000       -0.41667
 BRILLOUIN|    86           0.00333       -0.35000       -0.05000       -0.25000
 BRILLOUIN|    87           0.00333       -0.35000       -0.05000       -0.08333
 BRILLOUIN|    88           0.00333       -0.35000       -0.05000        0.08333
 BRILLOUIN|    89           0.00333       -0.35000       -0.05000        0.25000
 BRILLOUIN|    90           0.00333       -0.35000       -0.05000        0.41667
 BRILLOUIN|    91           0.00333       -0.35000        0.05000       -0.41667
 BRILLOUIN|    92           0.00333       -0.35000        0.05000       -0.25000
 BRILLOUIN|    93           0.00333       -0.35000        0.05000       -0.08333
 BRILLOUIN|    94           0.00333       -0.35000        0.05000        0.08333
 BRILLOUIN|    95           0.00333       -0.35000        0.05000        0.25000
 BRILLOUIN|    96           0.00333       -0.35000        0.05000        0.41667
 BRILLOUIN|    97           0.00333       -0.35000        0.15000       -0.41667
 BRILLOUIN|    98           0.00333       -0.35000        0.15000       -0.25000
 BRILLOUIN|    99           0.00333       -0.35000        0.15000       -0.08333
 BRILLOUIN|   100           0.00333       -0.35000        0.15000        0.08333
 BRILLOUIN|   101           0.00333       -0.35000        0.15000        0.25000
 BRILLOUIN|   102           0.00333       -0.35000        0.15000        0.41667
 BRILLOUIN|   103           0.00333       -0.35000        0.25000       -0.41667
 BRILLOUIN|   104           0.00333       -0.35000        0.25000       -0.25000
 BRILLOUIN|   105           0.00333       -0.35000        0.25000       -0.08333
 BRILLOUIN|   106           0.00333       -0.35000        0.25000        0.08333
 BRILLOUIN|   107           0.00333       -0.35000        0.25000        0.25000
 BRILLOUIN|   108           0.00333       -0.35000        0.25000        0.41667
 BRILLOUIN|   109           0.00333       -0.35000        0.35000       -0.41667
 BRILLOUIN|   110           0.00333       -0.35000        0.35000       -0.25000
 BRILLOUIN|   111           0.00333       -0.35000        0.35000       -0.08333
 BRILLOUIN|   112           0.00333       -0.35000        0.35000        0.08333
 BRILLOUIN|   113           0.00333       -0.35000        0.35000        0.25000
 BRILLOUIN|   114           0.00333       -0.35000        0.35000        0.41667
 BRILLOUIN|   115           0.00333       -0.35000        0.45000       -0.41667
 BRILLOUIN|   116           0.00333       -0.35000        0.45000       -0.25000
 BRILLOUIN|   117           0.00333       -0.35000        0.45000       -0.08333
 BRILLOUIN|   118           0.00333       -0.35000        0.45000        0.08333
 BRILLOUIN|   119           0.00333       -0.35000        0.45000        0.25000
 BRILLOUIN|   120           0.00333       -0.35000        0.45000        0.41667
 BRILLOUIN|   121           0.00333       -0.25000       -0.45000       -0.41667
 BRILLOUIN|   122           0.00333       -0.25000       -0.45000       -0.25000
 BRILLOUIN|   123           0.00333       -0.25000       -0.45000       -0.08333
 BRILLOUIN|   124           0.00333       -0.25000       -0.45000        0.08333
 BRILLOUIN|   125           0.00333       -0.25000       -0.45000        0.25000
 BRILLOUIN|   126           0.00333       -0.25000       -0.45000        0.41667
 BRILLOUIN|   127           0.00333       -0.25000       -0.35000       -0.41667
 BRILLOUIN|   128           0.00333       -0.25000       -0.35000       -0.25000
 BRILLOUIN|   129           0.00333       -0.25000       -0.35000       -0.08333
 BRILLOUIN|   130           0.00333       -0.25000       -0.35000        0.08333
 BRILLOUIN|   131           0.00333       -0.25000       -0.35000        0.25000
 BRILLOUIN|   132           0.00333       -0.25000       -0.35000        0.41667
 BRILLOUIN|   133           0.00333       -0.25000       -0.25000       -0.41667
 BRILLOUIN|   134           0.00333       -0.25000       -0.25000       -0.25000
 BRILLOUIN|   135           0.00333       -0.25000       -0.25000       -0.08333
 BRILLOUIN|   136           0.00333       -0.25000       -0.25000        0.08333
 BRILLOUIN|   137           0.00333       -0.25000       -0.25000        0.25000
 BRILLOUIN|   138           0.00333       -0.25000       -0.25000        0.41667
 BRILLOUIN|   139           0.00333       -0.25000       -0.15000       -0.41667
 BRILLOUIN|   140           0.00333       -0.25000       -0.15000       -0.25000
 BRILLOUIN|   141           0.00333       -0.25000       -0.15000       -0.08333
 BRILLOUIN|   142           0.00333       -0.25000       -0.15000        0.08333
 BRILLOUIN|   143           0.00333       -0.25000       -0.15000        0.25000
 BRILLOUIN|   144           0.00333       -0.25000       -0.15000        0.41667
 BRILLOUIN|   145           0.00333       -0.25000       -0.05000       -0.41667
 BRILLOUIN|   146           0.00333       -0.25000       -0.05000       -0.25000
 BRILLOUIN|   147           0.00333       -0.25000       -0.05000       -0.08333
 BRILLOUIN|   148           0.00333       -0.25000       -0.05000        0.08333
 BRILLOUIN|   149           0.00333       -0.25000       -0.05000        0.25000
 BRILLOUIN|   150           0.00333       -0.25000       -0.05000        0.41667
 BRILLOUIN|   151           0.00333       -0.25000        0.05000       -0.41667
 BRILLOUIN|   152           0.00333       -0.25000        0.05000       -0.25000
 BRILLOUIN|   153           0.00333       -0.25000        0.05000       -0.08333
 BRILLOUIN|   154           0.00333       -0.25000        0.05000        0.08333
 BRILLOUIN|   155           0.00333       -0.25000        0.05000        0.25000
 BRILLOUIN|   156           0.00333       -0.25000        0.05000        0.41667
 BRILLOUIN|   157           0.00333       -0.25000        0.15000       -0.41667
 BRILLOUIN|   158           0.00333       -0.25000        0.15000       -0.25000
 BRILLOUIN|   159           0.00333       -0.25000        0.15000       -0.08333
 BRILLOUIN|   160           0.00333       -0.25000        0.15000        0.08333
 BRILLOUIN|   161           0.00333       -0.25000        0.15000        0.25000
 BRILLOUIN|   162           0.00333       -0.25000        0.15000        0.41667
 BRILLOUIN|   163           0.00333       -0.25000        0.25000       -0.41667
 BRILLOUIN|   164           0.00333       -0.25000        0.25000       -0.25000
 BRILLOUIN|   165           0.00333       -0.25000        0.25000       -0.08333
 BRILLOUIN|   166           0.00333       -0.25000        0.25000        0.08333
 BRILLOUIN|   167           0.00333       -0.25000        0.25000        0.25000
 BRILLOUIN|   168           0.00333       -0.25000        0.25000        0.41667
 BRILLOUIN|   169           0.00333       -0.25000        0.35000       -0.41667
 BRILLOUIN|   170           0.00333       -0.25000        0.35000       -0.25000
 BRILLOUIN|   171           0.00333       -0.25000        0.35000       -0.08333
 BRILLOUIN|   172           0.00333       -0.25000        0.35000        0.08333
 BRILLOUIN|   173           0.00333       -0.25000        0.35000        0.25000
 BRILLOUIN|   174           0.00333       -0.25000        0.35000        0.41667
 BRILLOUIN|   175           0.00333       -0.25000        0.45000       -0.41667
 BRILLOUIN|   176           0.00333       -0.25000        0.45000       -0.25000
 BRILLOUIN|   177           0.00333       -0.25000        0.45000       -0.08333
 BRILLOUIN|   178           0.00333       -0.25000        0.45000        0.08333
 BRILLOUIN|   179           0.00333       -0.25000        0.45000        0.25000
 BRILLOUIN|   180           0.00333       -0.25000        0.45000        0.41667
 BRILLOUIN|   181           0.00333       -0.15000       -0.45000       -0.41667
 BRILLOUIN|   182           0.00333       -0.15000       -0.45000       -0.25000
 BRILLOUIN|   183           0.00333       -0.15000       -0.45000       -0.08333
 BRILLOUIN|   184           0.00333       -0.15000       -0.45000        0.08333
 BRILLOUIN|   185           0.00333       -0.15000       -0.45000        0.25000
 BRILLOUIN|   186           0.00333       -0.15000       -0.45000        0.41667
 BRILLOUIN|   187           0.00333       -0.15000       -0.35000       -0.41667
 BRILLOUIN|   188           0.00333       -0.15000       -0.35000       -0.25000
 BRILLOUIN|   189           0.00333       -0.15000       -0.35000       -0.08333
 BRILLOUIN|   190           0.00333       -0.15000       -0.35000        0.08333
 BRILLOUIN|   191           0.00333       -0.15000       -0.35000        0.25000
 BRILLOUIN|   192           0.00333       -0.15000       -0.35000        0.41667
 BRILLOUIN|   193           0.00333       -0.15000       -0.25000       -0.41667
 BRILLOUIN|   194           0.00333       -0.15000       -0.25000       -0.25000
 BRILLOUIN|   195           0.00333       -0.15000       -0.25000       -0.08333
 BRILLOUIN|   196           0.00333       -0.15000       -0.25000        0.08333
 BRILLOUIN|   197           0.00333       -0.15000       -0.25000        0.25000
 BRILLOUIN|   198           0.00333       -0.15000       -0.25000        0.41667
 BRILLOUIN|   199           0.00333       -0.15000       -0.15000       -0.41667
 BRILLOUIN|   200           0.00333       -0.15000       -0.15000       -0.25000
 BRILLOUIN|   201           0.00333       -0.15000       -0.15000       -0.08333
 BRILLOUIN|   202           0.00333       -0.15000       -0.15000        0.08333
 BRILLOUIN|   203           0.00333       -0.15000       -0.15000        0.25000
 BRILLOUIN|   204           0.00333       -0.15000       -0.15000        0.41667
 BRILLOUIN|   205           0.00333       -0.15000       -0.05000       -0.41667
 BRILLOUIN|   206           0.00333       -0.15000       -0.05000       -0.25000
 BRILLOUIN|   207           0.00333       -0.15000       -0.05000       -0.08333
 BRILLOUIN|   208           0.00333       -0.15000       -0.05000        0.08333
 BRILLOUIN|   209           0.00333       -0.15000       -0.05000        0.25000
 BRILLOUIN|   210           0.00333       -0.15000       -0.05000        0.41667
 BRILLOUIN|   211           0.00333       -0.15000        0.05000       -0.41667
 BRILLOUIN|   212           0.00333       -0.15000        0.05000       -0.25000
 BRILLOUIN|   213           0.00333       -0.15000        0.05000       -0.08333
 BRILLOUIN|   214           0.00333       -0.15000        0.05000        0.08333
 BRILLOUIN|   215           0.00333       -0.15000        0.05000        0.25000
 BRILLOUIN|   216           0.00333       -0.15000        0.05000        0.41667
 BRILLOUIN|   217           0.00333       -0.15000        0.15000       -0.41667
 BRILLOUIN|   218           0.00333       -0.15000        0.15000       -0.25000
 BRILLOUIN|   219           0.00333       -0.15000        0.15000       -0.08333
 BRILLOUIN|   220           0.00333       -0.15000        0.15000        0.08333
 BRILLOUIN|   221           0.00333       -0.15000        0.15000        0.25000
 BRILLOUIN|   222           0.00333       -0.15000        0.15000        0.41667
 BRILLOUIN|   223           0.00333       -0.15000        0.25000       -0.41667
 BRILLOUIN|   224           0.00333       -0.15000        0.25000       -0.25000
 BRILLOUIN|   225           0.00333       -0.15000        0.25000       -0.08333
 BRILLOUIN|   226           0.00333       -0.15000        0.25000        0.08333
 BRILLOUIN|   227           0.00333       -0.15000        0.25000        0.25000
 BRILLOUIN|   228           0.00333       -0.15000        0.25000        0.41667
 BRILLOUIN|   229           0.00333       -0.15000        0.35000       -0.41667
 BRILLOUIN|   230           0.00333       -0.15000        0.35000       -0.25000
 BRILLOUIN|   231           0.00333       -0.15000        0.35000       -0.08333
 BRILLOUIN|   232           0.00333       -0.15000        0.35000        0.08333
 BRILLOUIN|   233           0.00333       -0.15000        0.35000        0.25000
 BRILLOUIN|   234           0.00333       -0.15000        0.35000        0.41667
 BRILLOUIN|   235           0.00333       -0.15000        0.45000       -0.41667
 BRILLOUIN|   236           0.00333       -0.15000        0.45000       -0.25000
 BRILLOUIN|   237           0.00333       -0.15000        0.45000       -0.08333
 BRILLOUIN|   238           0.00333       -0.15000        0.45000        0.08333
 BRILLOUIN|   239           0.00333       -0.15000        0.45000        0.25000
 BRILLOUIN|   240           0.00333       -0.15000        0.45000        0.41667
 BRILLOUIN|   241           0.00333       -0.05000       -0.45000       -0.41667
 BRILLOUIN|   242           0.00333       -0.05000       -0.45000       -0.25000
 BRILLOUIN|   243           0.00333       -0.05000       -0.45000       -0.08333
 BRILLOUIN|   244           0.00333       -0.05000       -0.45000        0.08333
 BRILLOUIN|   245           0.00333       -0.05000       -0.45000        0.25000
 BRILLOUIN|   246           0.00333       -0.05000       -0.45000        0.41667
 BRILLOUIN|   247           0.00333       -0.05000       -0.35000       -0.41667
 BRILLOUIN|   248           0.00333       -0.05000       -0.35000       -0.25000
 BRILLOUIN|   249           0.00333       -0.05000       -0.35000       -0.08333
 BRILLOUIN|   250           0.00333       -0.05000       -0.35000        0.08333
 BRILLOUIN|   251           0.00333       -0.05000       -0.35000        0.25000
 BRILLOUIN|   252           0.00333       -0.05000       -0.35000        0.41667
 BRILLOUIN|   253           0.00333       -0.05000       -0.25000       -0.41667
 BRILLOUIN|   254           0.00333       -0.05000       -0.25000       -0.25000
 BRILLOUIN|   255           0.00333       -0.05000       -0.25000       -0.08333
 BRILLOUIN|   256           0.00333       -0.05000       -0.25000        0.08333
 BRILLOUIN|   257           0.00333       -0.05000       -0.25000        0.25000
 BRILLOUIN|   258           0.00333       -0.05000       -0.25000        0.41667
 BRILLOUIN|   259           0.00333       -0.05000       -0.15000       -0.41667
 BRILLOUIN|   260           0.00333       -0.05000       -0.15000       -0.25000
 BRILLOUIN|   261           0.00333       -0.05000       -0.15000       -0.08333
 BRILLOUIN|   262           0.00333       -0.05000       -0.15000        0.08333
 BRILLOUIN|   263           0.00333       -0.05000       -0.15000        0.25000
 BRILLOUIN|   264           0.00333       -0.05000       -0.15000        0.41667
 BRILLOUIN|   265           0.00333       -0.05000       -0.05000       -0.41667
 BRILLOUIN|   266           0.00333       -0.05000       -0.05000       -0.25000
 BRILLOUIN|   267           0.00333       -0.05000       -0.05000       -0.08333
 BRILLOUIN|   268           0.00333       -0.05000       -0.05000        0.08333
 BRILLOUIN|   269           0.00333       -0.05000       -0.05000        0.25000
 BRILLOUIN|   270           0.00333       -0.05000       -0.05000        0.41667
 BRILLOUIN|   271           0.00333       -0.05000        0.05000       -0.41667
 BRILLOUIN|   272           0.00333       -0.05000        0.05000       -0.25000
 BRILLOUIN|   273           0.00333       -0.05000        0.05000       -0.08333
 BRILLOUIN|   274           0.00333       -0.05000        0.05000        0.08333
 BRILLOUIN|   275           0.00333       -0.05000        0.05000        0.25000
 BRILLOUIN|   276           0.00333       -0.05000        0.05000        0.41667
 BRILLOUIN|   277           0.00333       -0.05000        0.15000       -0.41667
 BRILLOUIN|   278           0.00333       -0.05000        0.15000       -0.25000
 BRILLOUIN|   279           0.00333       -0.05000        0.15000       -0.08333
 BRILLOUIN|   280           0.00333       -0.05000        0.15000        0.08333
 BRILLOUIN|   281           0.00333       -0.05000        0.15000        0.25000
 BRILLOUIN|   282           0.00333       -0.05000        0.15000        0.41667
 BRILLOUIN|   283           0.00333       -0.05000        0.25000       -0.41667
 BRILLOUIN|   284           0.00333       -0.05000        0.25000       -0.25000
 BRILLOUIN|   285           0.00333       -0.05000        0.25000       -0.08333
 BRILLOUIN|   286           0.00333       -0.05000        0.25000        0.08333
 BRILLOUIN|   287           0.00333       -0.05000        0.25000        0.25000
 BRILLOUIN|   288           0.00333       -0.05000        0.25000        0.41667
 BRILLOUIN|   289           0.00333       -0.05000        0.35000       -0.41667
 BRILLOUIN|   290           0.00333       -0.05000        0.35000       -0.25000
 BRILLOUIN|   291           0.00333       -0.05000        0.35000       -0.08333
 BRILLOUIN|   292           0.00333       -0.05000        0.35000        0.08333
 BRILLOUIN|   293           0.00333       -0.05000        0.35000        0.25000
 BRILLOUIN|   294           0.00333       -0.05000        0.35000        0.41667
 BRILLOUIN|   295           0.00333       -0.05000        0.45000       -0.41667
 BRILLOUIN|   296           0.00333       -0.05000        0.45000       -0.25000
 BRILLOUIN|   297           0.00333       -0.05000        0.45000       -0.08333
 BRILLOUIN|   298           0.00333       -0.05000        0.45000        0.08333
 BRILLOUIN|   299           0.00333       -0.05000        0.45000        0.25000
 BRILLOUIN|   300           0.00333       -0.05000        0.45000        0.41667
 *******************************************************************************

 *******************************************************************************
 *******************************************************************************
 **                                                                           **
 **     #####                         ##              ##                      **
 **    ##   ##            ##          ##              ##                      **
 **   ##     ##                       ##            ######                    **
 **   ##     ##  ##   ##  ##   #####  ##  ##   ####   ##    #####    #####    **
 **   ##     ##  ##   ##  ##  ##      ## ##   ##      ##   ##   ##  ##   ##   **
 **   ##  ## ##  ##   ##  ##  ##      ####     ###    ##   ######   ######    **
 **    ##  ###   ##   ##  ##  ##      ## ##      ##   ##   ##       ##        **
 **     #######   #####   ##   #####  ##  ##  ####    ##    #####   ##        **
 **           ##                                                    ##        **
 **                                                                           **
 **                                                ... make the atoms dance   **
 **                                                                           **
 **            Copyright (C) by CP2K developers group (2000-2024)             **
 **                      J. Chem. Phys. 152, 194103 (2020)                    **
 **                                                                           **
 *******************************************************************************

 DFT| Spin restricted Kohn-Sham (RKS) calculation                            RKS
 DFT| Multiplicity                                                             1
 DFT| Number of spin states                                                    1
 DFT| Charge                                                                   0
 DFT| Self-interaction correction (SIC)                                       NO
 DFT| Cutoffs: density                                              1.000000E-10
 DFT|          gradient                                             1.000000E-10
 DFT|          tau                                                  1.000000E-10
 DFT|          cutoff_smoothing_range                               0.000000E+00
 DFT| XC density smoothing                                                  NONE
 DFT| XC derivatives                                                          PW

 FUNCTIONAL| PADE:
 FUNCTIONAL| S. Goedecker, M. Teter and J. Hutter, Phys. Rev. B 54, 1703 (1996) 


 QS| Method:                                                                 GPW
 QS| Density plane wave grid type                        NON-SPHERICAL FULLSPACE
 QS| Number of grid levels:                                                    4
 QS| Density cutoff [a.u.]:                                                250.0
 QS| Multi grid cutoff [a.u.]: 1) grid level                               250.0
 QS|                           2) grid level                                83.3
 QS|                           3) grid level                                27.8
 QS|                           4) grid level                                 9.3
 QS| Grid level progression factor:                                          3.0
 QS| Relative density cutoff [a.u.]:                                        50.0
 QS| Interaction thresholds: eps_pgf_orb:                                1.0E-12
 QS|                         eps_filter_matrix:                          0.0E+00
 QS|                         eps_core_charge:                            1.0E-14
 QS|                         eps_rho_gspace:                             1.0E-12
 QS|                         eps_rho_rspace:                             1.0E-12
 QS|                         eps_gvg_rspace:                             1.0E-06
 QS|                         eps_ppl:                                    1.0E-02
 QS|                         eps_ppnl:                                   1.0E-08


 ATOMIC KIND INFORMATION

  1. Atomic kind: H                                     Number of atoms:       2

     Orbital Basis Set                                                     cc-DZ

       Number of orbital shell sets:                                           3
       Number of orbital shells:                                               3
       Number of primitive Cartesian functions:                                5
       Number of Cartesian basis functions:                                    5
       Number of spherical basis functions:                                    5
       Norm type:                                                              2

       Normalised Cartesian orbitals:

                        Set   Shell   Orbital            Exponent    Coefficient

                          1       1    1s                0.165824       0.185202

                          2       1    1s                8.374435      -0.191705
                                                         1.805868      -0.285532
                                                         0.485253      -0.319237

                          3       1    1px               0.727000       0.956881
                          3       1    1py               0.727000       0.956881
                          3       1    1pz               0.727000       0.956881

     RI Auxiliary Basis Set                                                RI_DZ

       Number of orbital shell sets:                                           6
       Number of orbital shells:                                               6
       Number of primitive Cartesian functions:                                6
       Number of Cartesian basis functions:                                   15
       Number of spherical basis functions:                                   14
       Norm type:                                                              2

       Normalised Cartesian orbitals:

                        Set   Shell   Orbital            Exponent    Coefficient

                          1       1    1s                0.320318       0.303456

                          2       1    1px               0.985951       1.400424
                          2       1    1py               0.985951       1.400424
                          2       1    1pz               0.985951       1.400424

                          3       1    1s                1.147244       0.790045

                          4       1    1dx2              1.171485       2.171194
                          4       1    1dxy              1.171485       3.760618
                          4       1    1dxz              1.171485       3.760618
                          4       1    1dy2              1.171485       2.171194
                          4       1    1dyz              1.171485       3.760618
                          4       1    1dz2              1.171485       2.171194

                          5       1    1px               1.914940       3.210954
                          5       1    1py               1.914940       3.210954
                          5       1    1pz               1.914940       3.210954

                          6       1    1s                5.115332       2.424183

       Atomic covalent radius [Angstrom]:                                  0.320

       Atomic van der Waals radius [Angstrom]:                             1.090

     GTH Potential information for                                   GTH-PADE-q1

       Description:                       Goedecker-Teter-Hutter pseudopotential
                                           Goedecker et al., PRB 54, 1703 (1996)
                                          Hartwigsen et al., PRB 58, 3641 (1998)
                                                      Krack, TCA 114, 145 (2005)

       Gaussian exponent of the core charge distribution:              12.500000
       Electronic configuration (s p d ...):                                   1

       Parameters of the local part of the GTH pseudopotential:

                          rloc        C1          C2          C3          C4
                        0.200000   -4.180237    0.725075


 MOLECULE KIND INFORMATION


 All atoms are their own molecule, skipping detailed information


 TOTAL NUMBERS AND MAXIMUM NUMBERS

  Total number of            - Atomic kinds:                                   1
                             - Atoms:                                          2
                             - Shell sets:                                     6
                             - Shells:                                         6
                             - Primitive Cartesian functions:                 10
                             - Cartesian basis functions:                     10
                             - Spherical basis functions:                     10

  Maximum angular momentum of- Orbital basis functions:                        1
                             - Local part of the GTH pseudopotential:          2


 MODULE QUICKSTEP: ATOMIC COORDINATES IN ANGSTROM

   Atom Kind Element         X             Y             Z       Z(eff)     Mass
      1    1 H     1      0.000000      0.000000      0.000000   1.0000   1.0079
      2    1 H     1      0.000000      0.000000      0.700000   1.0000   1.0079



 SCF PARAMETERS         Density guess:                                    ATOMIC
                        --------------------------------------------------------
                        max_scf:                                            1000
                        max_scf_history:                                       0
                        max_diis:                                              4
                        --------------------------------------------------------
                        eps_scf:                                        1.00E-09
                        eps_scf_history:                                0.00E+00
                        eps_diis:                                       1.00E-01
                        eps_eigval:                                     1.00E-05
                        --------------------------------------------------------
                        level_shift [a.u.]:                             0.000000
                        added MOs                                         9    0
                        --------------------------------------------------------
                        Mixing method:                            BROYDEN_MIXING
                                                charge density mixing in g-space
                        --------------------------------------------------------
                        No outer SCF

 PW_GRID| Information for grid number                                          1
 PW_GRID| Grid distributed over                                   128 processors
 PW_GRID| Real space group dimensions                                     8   16
 PW_GRID| the grid is blocked:                                               YES
 PW_GRID| Cutoff [a.u.]                                                    250.0
 PW_GRID| spherical cutoff:                                                   NO
 PW_GRID|   Bounds   1            -27      26                Points:          54
 PW_GRID|   Bounds   2            -27      26                Points:          54
 PW_GRID|   Bounds   3            -45      44                Points:          90
 PW_GRID| Volume element (a.u.^3)  0.2154E-02     Volume (a.u.^3)       565.3450
 PW_GRID| Grid span                                                    FULLSPACE
 PW_GRID|   Distribution                         Average         Max         Min
 PW_GRID|   G-Vectors                             2050.3        2268        1620
 PW_GRID|   G-Rays                                  38.0          42          30
 PW_GRID|   Real Space Points                     2050.3        2268        1620

 PW_GRID| Information for grid number                                          2
 PW_GRID| Number of the reference grid                                         1
 PW_GRID| Grid distributed over                                   128 processors
 PW_GRID| Real space group dimensions                                     8   16
 PW_GRID| the grid is blocked:                                                NO
 PW_GRID| Cutoff [a.u.]                                                     83.3
 PW_GRID| spherical cutoff:                                                   NO
 PW_GRID|   Bounds   1            -16      15                Points:          32
 PW_GRID|   Bounds   2            -16      15                Points:          32
 PW_GRID|   Bounds   3            -27      26                Points:          54
 PW_GRID| Volume element (a.u.^3)  0.1022E-01     Volume (a.u.^3)       565.3450
 PW_GRID| Grid span                                                    FULLSPACE
 PW_GRID|   Distribution                         Average         Max         Min
 PW_GRID|   G-Vectors                              432.0        1344           0
 PW_GRID|   G-Rays                                  13.5          42           0
 PW_GRID|   Real Space Points                      432.0         432         432

 PW_GRID| Information for grid number                                          3
 PW_GRID| Number of the reference grid                                         1
 PW_GRID| Grid distributed over                                   128 processors
 PW_GRID| Real space group dimensions                                     8   16
 PW_GRID| the grid is blocked:                                                NO
 PW_GRID| Cutoff [a.u.]                                                     27.8
 PW_GRID| spherical cutoff:                                                   NO
 PW_GRID|   Bounds   1             -9       8                Points:          18
 PW_GRID|   Bounds   2             -9       8                Points:          18
 PW_GRID|   Bounds   3            -15      14                Points:          30
 PW_GRID| Volume element (a.u.^3)  0.5816E-01     Volume (a.u.^3)       565.3450
 PW_GRID| Grid span                                                    FULLSPACE
 PW_GRID|   Distribution                         Average         Max         Min
 PW_GRID|   G-Vectors                               75.9         756           0
 PW_GRID|   G-Rays                                   4.2          42           0
 PW_GRID|   Real Space Points                       75.9         180          60

 PW_GRID| Information for grid number                                          4
 PW_GRID| Number of the reference grid                                         1
 PW_GRID| Grid distributed over                                   128 processors
 PW_GRID| Real space group dimensions                                     8   16
 PW_GRID| the grid is blocked:                                                NO
 PW_GRID| Cutoff [a.u.]                                                      9.3
 PW_GRID| spherical cutoff:                                                   NO
 PW_GRID|   Bounds   1             -6       5                Points:          12
 PW_GRID|   Bounds   2             -6       5                Points:          12
 PW_GRID|   Bounds   3             -9       8                Points:          18
 PW_GRID| Volume element (a.u.^3)  0.2181         Volume (a.u.^3)       565.3450
 PW_GRID| Grid span                                                    FULLSPACE
 PW_GRID|   Distribution                         Average         Max         Min
 PW_GRID|   G-Vectors                               20.2         432           0
 PW_GRID|   G-Rays                                   1.7          36           0
 PW_GRID|   Real Space Points                       20.2          36           0

 POISSON| Solver                                                        PERIODIC
 POISSON| Periodicity                                                        XYZ

 RS_GRID| Information for grid number                                          1
 RS_GRID|   Bounds   1            -27      26                Points:          54
 RS_GRID|   Bounds   2            -27      26                Points:          54
 RS_GRID|   Bounds   3            -45      44                Points:          90
 RS_GRID| Real space fully replicated
 RS_GRID| Group size                                                           1

 RS_GRID| Information for grid number                                          2
 RS_GRID|   Bounds   1            -16      15                Points:          32
 RS_GRID|   Bounds   2            -16      15                Points:          32
 RS_GRID|   Bounds   3            -27      26                Points:          54
 RS_GRID| Real space fully replicated
 RS_GRID| Group size                                                           1

 RS_GRID| Information for grid number                                          3
 RS_GRID|   Bounds   1             -9       8                Points:          18
 RS_GRID|   Bounds   2             -9       8                Points:          18
 RS_GRID|   Bounds   3            -15      14                Points:          30
 RS_GRID| Real space fully replicated
 RS_GRID| Group size                                                           1

 RS_GRID| Information for grid number                                          4
 RS_GRID|   Bounds   1             -6       5                Points:          12
 RS_GRID|   Bounds   2             -6       5                Points:          12
 RS_GRID|   Bounds   3             -9       8                Points:          18
 RS_GRID| Real space fully replicated
 RS_GRID| Group size                                                           1

 Number of electrons:                                                          2
 Number of occupied orbitals:                                                  1
 Number of molecular orbitals:                                                10

 Number of orbital functions:                                                 10
 Number of independent orbital functions:                                     10

 Extrapolation method: initial_guess

 Atomic guess: The first density matrix is obtained in terms of atomic orbitals
               and electronic configurations assigned to each atomic kind

 Guess for atomic kind: H

 Electronic structure
    Total number of core electrons                                          0.00
    Total number of valence electrons                                       1.00
    Total number of electrons                                               1.00
    Multiplicity                                                   not specified
    S      1.00


 *******************************************************************************
                  Iteration          Convergence                     Energy [au]
 *******************************************************************************
                          1        0.147171E-02                  -0.421723711027
                          2        0.157122E-03                  -0.421725945021
                          3        0.196312E-07                  -0.421725970773

 Energy components [Hartree]           Total Energy ::           -0.421725970773
                                        Band Energy ::           -0.187780976674
                                     Kinetic Energy ::            0.476586039475
                                   Potential Energy ::           -0.898312010248
                                      Virial (-V/T) ::            1.884889476070
                                        Core Energy ::           -0.480158516611
                                          XC Energy ::           -0.252039314035
                                     Coulomb Energy ::            0.310471859872
                       Total Pseudopotential Energy ::           -0.973399080031
                       Local Pseudopotential Energy ::           -0.973399080031
                    Nonlocal Pseudopotential Energy ::            0.000000000000
                                        Confinement ::            0.166545239452

 Orbital energies  State     L     Occupation   Energy[a.u.]          Energy[eV]

                       1     0          1.000      -0.187781           -5.109780


 Total Electron Density at R=0:                                         0.222989
 Re-scaling the density matrix to get the right number of electrons
                  # Electrons              Trace(P)               Scaling factor
                            2                 2.000                        1.000


 SCF WAVEFUNCTION OPTIMIZATION

  Step     Update method      Time    Convergence         Total energy    Change
  ------------------------------------------------------------------------------
     1 NoMix/Diag. 0.10E+00    1.4     0.31943971        -0.9447423791 -9.45E-01
     2 Broy./Diag. 0.10E+00    1.4     0.00271015        -0.7351183446  2.10E-01
     3 Broy./Diag. 0.10E+00    1.3     0.03661176        -1.0264975951 -2.91E-01
     4 Broy./Diag. 0.10E+00    1.3     0.00050373        -1.0940511027 -6.76E-02
     5 Broy./Diag. 0.10E+00    1.3     0.00409181        -1.1033315109 -9.28E-03
     6 Broy./Diag. 0.10E+00    1.3     0.00009177        -1.1125619885 -9.23E-03
     7 Broy./Diag. 0.10E+00    1.3     0.00075086        -1.1231062999 -1.05E-02
     8 Broy./Diag. 0.10E+00    1.3     0.00038977        -1.1272772983 -4.17E-03
     9 Broy./Diag. 0.10E+00    1.4     0.00144995        -1.1254153771  1.86E-03
    10 Broy./Diag. 0.10E+00    1.4     0.00013430        -1.1275052895 -2.09E-03
    11 Broy./Diag. 0.10E+00    1.3     0.00086537        -1.1265572113  9.48E-04
    12 Broy./Diag. 0.10E+00    1.3     0.00000484        -1.1279286327 -1.37E-03
    13 Broy./Diag. 0.10E+00    1.4     0.00002437        -1.1273264951  6.02E-04
    14 Broy./Diag. 0.10E+00    1.4     0.00001903        -1.1272637212  6.28E-05
    15 Broy./Diag. 0.10E+00    1.4     0.00001204        -1.1272126003  5.11E-05
    16 Broy./Diag. 0.10E+00    1.4     0.00000243        -1.1272152962 -2.70E-06
    17 Broy./Diag. 0.10E+00    1.4     0.00000394        -1.1271770779  3.82E-05
    18 Broy./Diag. 0.10E+00    1.4     0.00000250        -1.1271635254  1.36E-05
    19 Broy./Diag. 0.10E+00    1.5     0.00000116        -1.1271741166 -1.06E-05
    20 Broy./Diag. 0.10E+00    1.4     0.00000126        -1.1271882429 -1.41E-05
    21 Broy./Diag. 0.10E+00    1.4     0.00000006        -1.1271920330 -3.79E-06
    22 Broy./Diag. 0.10E+00    1.5     0.00000009        -1.1271898174  2.22E-06
    23 Broy./Diag. 0.10E+00    1.5     0.00000009        -1.1271893816  4.36E-07
    24 Broy./Diag. 0.10E+00    1.4     0.00000015        -1.1271887836  5.98E-07
    25 Broy./Diag. 0.10E+00    1.4     0.00000044        -1.1271882526  5.31E-07
    26 Broy./Diag. 0.10E+00    1.4     0.00000008        -1.1271881857  6.69E-08
    27 Broy./Diag. 0.10E+00    1.4     0.00000039        -1.1271902031 -2.02E-06
    28 Broy./Diag. 0.10E+00    1.4     0.00000014        -1.1271904751 -2.72E-07
    29 Broy./Diag. 0.10E+00    1.4     0.00000003        -1.1271890274  1.45E-06
    30 Broy./Diag. 0.10E+00    1.4     0.00000006        -1.1271879387  1.09E-06
    31 Broy./Diag. 0.10E+00    1.5     0.00000008        -1.1271882453 -3.07E-07
    32 Broy./Diag. 0.10E+00    1.5     0.00000013        -1.1271891502 -9.05E-07
    33 Broy./Diag. 0.10E+00    1.4     0.00000003        -1.1271894852 -3.35E-07
    34 Broy./Diag. 0.10E+00    1.4     0.00000001        -1.1271895445 -5.92E-08
    35 Broy./Diag. 0.10E+00    1.4     2.7959E-09        -1.1271895178  2.67E-08
    36 Broy./Diag. 0.10E+00    1.3     0.00000001        -1.1271894313  8.65E-08
    37 Broy./Diag. 0.10E+00    1.3     0.00000001        -1.1271893351  9.62E-08
    38 Broy./Diag. 0.10E+00    1.4     4.5950E-09        -1.1271893497 -1.45E-08
    39 Broy./Diag. 0.10E+00    1.3     0.00000001        -1.1271894214 -7.17E-08
    40 Broy./Diag. 0.10E+00    1.4     4.8082E-09        -1.1271894538 -3.25E-08
    41 Broy./Diag. 0.10E+00    1.3     8.9345E-10        -1.1271894524  1.40E-09

  *** SCF run converged in    41 steps ***


  Electronic density on regular grids:         -2.0000000000        0.0000000000
  Core density on regular grids:                2.0000000000       -0.0000000000
  Total charge density on r-space grids:        0.0000000000
  Total charge density g-space grids:           0.0000000000

  Overlap energy of the core charge distribution:               0.00000220242433
  Self energy of the core charge distribution:                 -2.82094791773878
  Core Hamiltonian energy:                                      0.98710575810632
  Hartree energy:                                               1.38014035328517
  Exchange-correlation energy:                                 -0.67348984848810

  Total energy:                                                -1.12718945241107

 !-----------------------------------------------------------------------------!
                     Mulliken Population Analysis

 #  Atom  Element  Kind  Atomic population                           Net charge
       1     H        1          1.000000                             -0.000000
       2     H        1          1.000000                              0.000000
 # Total charge                              2.000000                  0.000000

 !-----------------------------------------------------------------------------!

 !-----------------------------------------------------------------------------!
                           Hirshfeld Charges

  #Atom  Element  Kind  Ref Charge     Population                    Net charge
      1       H      1       1.000          0.949                         0.051
      2       H      1       1.000          0.949                         0.051

  Total Charge                                                            0.102
 !-----------------------------------------------------------------------------!
  
 -------------------------------------------------------------------------------
 -                                                                             -
 -                          BANDSTRUCTURE CALCULATION                          -
 -                                                                             -
 -------------------------------------------------------------------------------
  
 Number of occupied molecular orbitals (MOs) = Number of occupied bands        1
 Number of unoccupied (= virtual) MOs = Number of unoccupied bands             9
 Number of Gaussian basis functions for MOs                                   10
 Number of cells considered in the DFT calculation                           113
 Number of cells for G, , W,                                               405
 Number of special k-points for the bandstructure                              3
 Number of k-points for the bandstructure                                    623
  
 -------------------------------------------------------------------------------
 -                                                                             -
 -                              GW CALCULATION                                 -
 -                                                                             -
 -------------------------------------------------------------------------------
  
 Input: Number of time/freq. points                                           30
 Input: Filter threshold for sparse tensor operations                    1.0E-09
 Apply Hedin shift                                                             F
  
 Number of auxiliary Gaussian basis functions for , , W                     28
 Cutoff radius for the truncated Coulomb operator in ^x:                  8.4 
 Cutoff radius for the truncated Coulomb operator in RI metric:            3.0 
 Regularization parameter of RI                                          1.0E-02
 Lattice sum size for V(k):                                                    3
  
 K-point mesh 1 for , , W                                           40  40  24
 K-point mesh 2 for , , W (for k-point extrapolation of W)          80  80  48
 Approximate the k-point extrapolation                                         F
 Radius of atomic orbitals                                                 7.1 
 Radius of RI functions                                                    5.1 
 Number of cells for 3c integrals                                             75
 Number of cell pairs for 3c integrals                                      1249
 
 Input: Available memory per MPI process                                 10.0 GB
 Used memory per MPI process before GW run                                0.7 GB
 Memory of three-center integrals                                         0.0 GB
 Group size for tensor operations                                              1
 Number of cells R                                                          431
 Min. abs. eigenvalue of RI metric matrix M(k)                           7.2E-03
 Max. abs. eigenvalue of RI metric matrix M(k)                           1.2E+02
 Max. condition number of M(k)                                           1.5E+04
 
 SCF direct band gap (eV)                                                  11.99
 Max. SCF eigval diff. (eV)                                               103.23
 E-Range for minimax grid                                                   8.61
 Number of Pad parameters for analytic continuation:                         16
 
 Computed ^R(i) for time point            1 / 30,      Execution time    5.6 s
 Computed ^R(i) for time point            2 / 30,      Execution time    5.4 s
 Computed ^R(i) for time point            3 / 30,      Execution time    5.4 s
 Computed ^R(i) for time point            4 / 30,      Execution time    5.4 s
 Computed ^R(i) for time point            5 / 30,      Execution time    5.4 s
 Computed ^R(i) for time point            6 / 30,      Execution time    5.4 s
 Computed ^R(i) for time point            7 / 30,      Execution time    5.4 s
 Computed ^R(i) for time point            8 / 30,      Execution time    5.5 s
 Computed ^R(i) for time point            9 / 30,      Execution time    5.4 s
 Computed ^R(i) for time point           10 / 30,      Execution time    5.4 s
 Computed ^R(i) for time point           11 / 30,      Execution time    5.4 s
 Computed ^R(i) for time point           12 / 30,      Execution time    5.4 s
 Computed ^R(i) for time point           13 / 30,      Execution time    5.2 s
 Computed ^R(i) for time point           14 / 30,      Execution time    5.0 s
 Computed ^R(i) for time point           15 / 30,      Execution time    4.1 s
 Computed ^R(i) for time point           16 / 30,      Execution time    3.8 s
 Computed ^R(i) for time point           17 / 30,      Execution time    3.1 s
 Computed ^R(i) for time point           18 / 30,      Execution time    2.6 s
 Computed ^R(i) for time point           19 / 30,      Execution time    2.6 s
 Computed ^R(i) for time point           20 / 30,      Execution time    2.6 s
 Computed ^R(i) for time point           21 / 30,      Execution time    2.6 s
 Computed ^R(i) for time point           22 / 30,      Execution time    3.1 s
 Computed ^R(i) for time point           23 / 30,      Execution time    2.6 s
 Computed ^R(i) for time point           24 / 30,      Execution time    3.4 s
 Computed ^R(i) for time point           25 / 30,      Execution time    2.7 s
 Computed ^R(i) for time point           26 / 30,      Execution time    3.4 s
 Computed ^R(i) for time point           27 / 30,      Execution time    3.6 s
 Computed ^R(i) for time point           28 / 30,      Execution time    2.6 s
 Computed ^R(i) for time point           29 / 30,      Execution time    2.6 s
 Computed ^R(i) for time point           30 / 30,      Execution time    2.6 s
 N2testcos :    3.2420888196327269E-010
 N2testsin :    1.4907131085095671E-011
 N2testcosd :    1.6933341839830973E-008
 N2testsind :    9.6864937404461671E-008
 N2testcosq :    8.0254758358933032E-005
 N2testsinq :    1.6936683095991611E-005
 N2testcos :    3.2331004540253616E-010
 N2testsin :    1.5717982471130654E-011
 N2testcosd :    9.8251007329963613E-009
 N2testsind :    6.8900817495887168E-008
 N2testcosq :    1.0845219367183745E-004
 N2testsinq :    1.1609110515564680E-005
 N2testcos :    3.6821157234356860E-010
 N2testsin :    1.1416090295313097E-011
 N2testcosd :    1.0608378175902544E-008
 N2testsind :    5.1325571348570520E-008
 N2testcosq :    7.0735472036176361E-005
 N2testsinq :    1.8882157746702433E-005
 N2testcos :    4.1361136737805282E-010
 N2testsin :    1.2637224600098307E-011
 N2testcosd :    1.2523543091447209E-008
 N2testsind :    4.7598248897884332E-008
 N2testcosq :    5.8043748140335083E-005
 N2testsinq :    3.9968988858163357E-005
 N2testcos :    3.1549873824587849E-010
 N2testsin :    1.5405288156244978E-011
 N2testcosd :    1.3849899005435873E-008
 N2testsind :    4.6114024598864489E-008
 N2testcosq :    5.8756384532898664E-005
 N2testsinq :    4.0289887692779303E-005
 N2testcos :    5.3512072550887524E-010
 N2testsin :    7.8956841065291883E-012
 N2testcosd :    4.8717936351749813E-009
 N2testsind :    7.7938068443472730E-008
 N2testcosq :    8.7735141278244555E-005
 N2testsinq :    2.6165231247432530E-005
 N2testcos :    3.1374247644322395E-010
 N2testsin :    9.6233854218752413E-012
 N2testcosd :    9.3355936314765131E-009
 N2testsind :    5.3288601975509664E-008
 N2testcosq :    6.8749795900657773E-005
 N2testsinq :    4.5547931222245097E-005
 N2testcos :    3.8238073818419593E-010
 N2testsin :    1.1011636047442153E-011
 N2testcosd :    6.8292820287751965E-009
 N2testsind :    5.4709914820705308E-008
 N2testcosq :    8.3574696873256471E-005
 N2testsinq :    3.7420435546664521E-005
 N2testcos :    3.9863834455644565E-010
 N2testsin :    1.1333045613071135E-011
 N2testcosd :    1.1954369938393938E-008
 N2testsind :    1.1418956091802102E-007
 N2testcosq :    8.7093831098172814E-005
 N2testsinq :    1.2742282706312835E-005
 N2testcos :    3.5323810543275158E-010
 N2testsin :    9.3820506918973479E-012
 N2testcosd :    1.5760406313347630E-008
 N2testsind :    5.9726431800299906E-008
 N2testcosq :    7.8247772762551904E-005
 N2testsinq :    1.4235207345336676E-005
 N2testcos :    5.3778195785447735E-010
 N2testsin :    1.9203971746151183E-011
 N2testcosd :    1.2572106911079572E-008
 N2testsind :    7.1939439294510521E-008
 N2testcosq :    8.0573743616696447E-005
 N2testsinq :    3.8205471355468035E-005
 N2testcos :    3.4510838631263141E-010
 N2testsin :    1.1396661392382157E-011
 N2testcosd :    6.4449068304384127E-009
 N2testsind :    5.2989491905464092E-008
 N2testcosq :    6.9871137384325266E-005
 N2testsinq :    2.0401843357831240E-005
 N2testcos :    3.1521552035229661E-010
 N2testsin :    1.5095813488130716E-011
 N2testcosd :    1.3841201962350169E-008
 N2testsind :    3.5081257010460831E-008
 N2testcosq :    5.8571167755872011E-005
 N2testsinq :    2.2937456378713250E-005
 N2testcos :    4.1249070825699619E-010
 N2testsin :    7.6854078656651836E-012
 N2testcosd :    7.9736537372809835E-009
 N2testsind :    8.2652917399173020E-008
 N2testcosq :    7.0088630309328437E-005
 N2testsinq :    4.3301639379933476E-005
 N2testcos :    3.3762770357270711E-010
 N2testsin :    9.1540108826393407E-012
 N2testcosd :    1.5786667972861324E-008
 N2testsind :    6.8824306254100520E-008
 N2testcosq :    1.6590283485129476E-004
 N2testsinq :    2.0931678591296077E-004
 N2testcos :    3.1377678233468487E-010
 N2testsin :    1.2037260077590872E-011
 N2testcosd :    8.5628926171921194E-009
 N2testsind :    8.5868435917291208E-008
 N2testcosq :    6.1213286244310439E-005
 N2testsinq :    4.5093707740306854E-005
 N2testcos :    3.6204683695473250E-010
 N2testsin :    1.5072276760008663E-011
 N2testcosd :    1.3493377082340885E-008
 N2testsind :    9.6807752925087698E-008
 N2testcosq :    8.0248661106452346E-005
 N2testsinq :    1.2900331057608128E-005
 N2testcos :    3.2919489356686427E-010
 N2testsin :    1.0487055668306766E-011
 N2testcosd :    7.1304953053186182E-009
 N2testsind :    5.5243162933038548E-008
 N2testcosq :    7.0796842919662595E-005
 N2testsinq :    2.9738934244960546E-005
 N2testcos :    3.9013270392018740E-010
 N2testsin :    6.6645577945223522E-012
 N2testcosd :    8.5909164226904977E-009
 N2testsind :    5.5001748933136696E-008
 N2testcosq :    8.7138170783873647E-005
 N2testsinq :    1.4621706213802099E-005
 N2testcos :    3.3681091249349038E-010
 N2testsin :    1.1993295245815716E-011
 N2testcosd :    9.2005620899726637E-009
 N2testsind :    5.3315034165279940E-008
 N2testcosq :    6.0971520724706352E-005
 N2testsinq :    3.2192823709920049E-005
 N2testcos :    3.3174840652350213E-010
 N2testsin :    1.8660184508689781E-011
 N2testcosd :    1.4067950360185932E-008
 N2testsind :    7.8928565017122310E-008
 N2testcosq :    1.1800122592831030E-004
 N2testsinq :    3.6579207517206669E-005
 N2testcos :    3.1317998194779761E-010
 N2testsin :    1.3312573265977790E-011
 N2testcosd :    1.0862208910111804E-008
 N2testsind :    6.2028675529290922E-008
 N2testcosq :    6.1128062952775508E-005
 N2testsinq :    6.7147149820812047E-005
 N2testcos :    3.4583724772829783E-010
 N2testsin :    1.5873330427851329E-011
 N2testcosd :    1.2187200582047808E-008
 N2testsind :    3.6891506738356838E-008
 N2testcosq :    6.9180518039502203E-005
 N2testsinq :    2.0233826944604516E-005
 N2testcos :    4.6329595715377536E-010
 N2testsin :    1.9842461007613110E-011
 N2testcosd :    9.7966221801470965E-009
 N2testsind :    6.5585727071493238E-008
 N2testcosq :    6.4905030740192160E-005
 N2testsinq :    1.7471786122769117E-005
 N2testcos :    3.8731806650815770E-010
 N2testsin :    2.1158519381003771E-011
 N2testcosd :    7.9862161328492220E-009
 N2testsind :    8.1834883758347132E-008
 N2testcosq :    8.7123269622679800E-005
 N2testsinq :    6.8760709837079048E-006
 N2testcos :    3.1170299674698754E-010
 N2testsin :    9.8355212863054930E-012
 N2testcosd :    1.0037524589279201E-008
 N2testsind :    4.2339252104284242E-008
 N2testcosq :    6.9130852352827787E-005
 N2testsinq :    6.0694292187690735E-006
 N2testcos :    5.3442172909257124E-010
 N2testsin :    6.9196454122177897E-012
 N2testcosd :    7.3161174896085868E-009
 N2testsind :    7.1886574914969970E-008
 N2testcosq :    8.0554469604976475E-005
 N2testsinq :    1.7158570699393749E-005
 N2testcos :    3.2889813095238196E-010
 N2testsin :    2.3099855361863320E-011
 N2testcosd :    9.5265022537205368E-009
 N2testsind :    4.8605102165311109E-008
 N2testcosq :    6.2970386352390051E-005
 N2testsinq :    7.5616408139467239E-006
 N2testcos :    3.6226482924561765E-010
 N2testsin :    1.1480261186136431E-011
 N2testcosd :    1.0209532774752006E-008
 N2testsind :    6.4594999571454537E-008
 N2testcosq :    7.9489000199828297E-005
 N2testsinq :    7.7163131209090352E-006
 N2testcos :    3.9619230118859150E-010
 N2testsin :    1.3069101356677493E-011
 N2testcosd :    7.1033809945220128E-009
 N2testsind :    5.9159063425795466E-008
 N2testcosq :    8.9874873083317652E-005
 N2testsinq :    5.4671545512974262E-006
 N2testcos :    3.9371950144584389E-010
 N2testsin :    1.4591328145741045E-011
 N2testcosd :    1.1154583035022370E-008
 N2testsind :    6.2154178692708228E-008
 N2testcosq :    8.3621118392329663E-005
 N2testsinq :    5.4055475629866123E-005
 N2testcos :    3.5709735168865109E-010
 N2testsin :    1.2989942455021719E-011
 N2testcosd :    9.9830401723011164E-009
 N2testsind :    6.2188860283640679E-008
 N2testcosq :    8.6109095718711615E-005
 N2testsinq :    2.6677793357521296E-005
 N2testcos :    3.6796810043426831E-010
 N2testsin :    1.0168421660239346E-011
 N2testcosd :    1.3334613413462648E-008
 N2testsind :    1.1397628441045526E-007
 N2testcosq :    8.6060152170830406E-005
 N2testsinq :    4.8967194743454456E-006
 N2testcos :    3.4540525994941618E-010
 N2testsin :    1.8506307597476734E-011
 N2testcosd :    1.3440974555578578E-008
 N2testsind :    3.4321189446018252E-008
 N2testcosq :    6.7886307078879327E-005
 N2testsinq :    5.3689662308897823E-005
 N2testcos :    3.9220549030716256E-010
 N2testsin :    8.4302564928862012E-012
 N2testcosd :    1.2311716091062408E-008
 N2testsind :    5.5422020750484080E-008
 N2testcosq :    7.8218770795501769E-005
 N2testsinq :    3.5251257941126823E-005
 N2testcos :    4.6372938822258902E-010
 N2testsin :    1.9991008848307956E-011
 N2testcosd :    7.8280208981595933E-009
 N2testsind :    6.5640278990031220E-008
 N2testcosq :    6.5641121182125062E-005
 N2testsinq :    1.4525343431159854E-005
 N2testcos :    4.6328846314835914E-010
 N2testsin :    1.7665594681526287E-011
 N2testcosd :    7.3878823059203569E-009
 N2testsind :    8.4403552591538755E-008
 N2testcosq :    7.3615054134279490E-005
 N2testsinq :    2.1015584934502840E-005
 N2testcos :    3.8046010786274564E-010
 N2testsin :    1.9268864281940523E-011
 N2testcosd :    1.1186273241037270E-008
 N2testsind :    7.1114101274361019E-008
 N2testcosq :    1.2976408470422029E-004
 N2testsinq :    6.8224217102397233E-006
 N2testcos :    3.4512792623786481E-010
 N2testsin :    2.0492940677740989E-011
 N2testcosd :    7.8005228942856775E-009
 N2testsind :    1.6193413898690778E-007
 N2testcosq :    7.0651934947818518E-005
 N2testsinq :    1.2001313734799623E-005
 N2testcos :    3.6314473650378432E-010
 N2testsin :    1.4277357074377051E-011
 N2testcosd :    7.3519004217814654E-009
 N2testsind :    7.1416025093640201E-008
 N2testcosq :    7.8263212344609201E-005
 N2testsinq :    1.2566102668642998E-005
 N2testcos :    3.1480751339074686E-010
 N2testsin :    1.6090240251287469E-011
 N2testcosd :    1.3756903172179591E-008
 N2testsind :    5.6630483413755428E-008
 N2testcosq :    6.6488355514593422E-005
 N2testsinq :    4.3003587052226067E-005
 N2testcos :    3.9744629809490561E-010
 N2testsin :    7.7180484225891632E-012
 N2testcosd :    1.0074643341795309E-008
 N2testsind :    7.4238130309822736E-008
 N2testcosq :    7.8772216511424631E-005
 N2testsinq :    3.4149532439187169E-005
 N2testcos :    3.4814495730728368E-010
 N2testsin :    4.7435388950134438E-012
 N2testcosd :    7.2078023549693171E-009
 N2testsind :    6.1244762150636234E-008
 N2testcosq :    8.5015388322062790E-005
 N2testsinq :    1.6656762454658747E-005
 N2testcos :    4.0091907571593310E-010
 N2testsin :    1.2601697463310302E-011
 N2testcosd :    9.1362721832410898E-009
 N2testsind :    6.0466391005320475E-008
 N2testcosq :    7.7436779974959791E-005
 N2testsinq :    1.0077899787575006E-005
 N2testcos :    3.4178704311216279E-010
 N2testsin :    9.5485841455911213E-012
 N2testcosd :    9.1263814283593092E-009
 N2testsind :    1.1516152653712197E-007
 N2testcosq :    1.1094255023635924E-004
 N2testsinq :    7.1022077463567257E-006
 N2testcos :    3.1156288660127984E-010
 N2testsin :    1.1765477481162634E-011
 N2testcosd :    1.0213966561423149E-008
 N2testsind :    6.9857378548476845E-008
 N2testcosq :    6.9455418270081282E-005
 N2testsinq :    5.4729462135583162E-006
 N2testcos :    3.6237812750528064E-010
 N2testsin :    2.2875534799737807E-011
 N2testcosd :    1.4916906820872100E-008
 N2testsind :    1.1350340400895220E-007
 N2testcosq :    7.0010573836043477E-005
 N2testsinq :    2.2856605937704444E-005
 N2testcos :    3.2837821350995000E-010
 N2testsin :    1.9484414082171497E-011
 N2testcosd :    9.9041699286317453E-009
 N2testsind :    1.0423900675959885E-007
 N2testcosq :    7.0824135036673397E-005
 N2testsinq :    2.3218744900077581E-005
 N2testcos :    3.5824154753782977E-010
 N2testsin :    1.3480772054208501E-011
 N2testcosd :    7.8208586273831315E-009
 N2testsind :    5.6352916999458103E-008
 N2testcosq :    7.6704527600668371E-005
[...]
 -                                DBM STATISTICS                               -
 -                                                                             -
 -------------------------------------------------------------------------------
    M  x    N  x    K                                          COUNT     PERCENT
    ?  x    ?  x    ?                                        5809542      49.76%
   ??  x    ?  x    ?                                        3578872      30.66%
   ??  x   ??  x   ??                                        1937578      16.60%
    ?  x    ?  x   ??                                         348376       2.98%
 -------------------------------------------------------------------------------

 -------------------------------------------------------------------------------
 -                                                                             -
 -                                GRID STATISTICS                              -
 -                                                                             -
 -------------------------------------------------------------------------------
 LP    KERNEL             BACKEND                              COUNT     PERCENT
 0     integrate general  CPU                                  28162      36.34%
 0     collocate general  CPU                                  26884      34.69%
 1     integrate general  CPU                                  10560      13.63%
 1     collocate general  CPU                                  10080      13.01%
 2     integrate general  CPU                                    924       1.19%
 2     collocate general  CPU                                    882       1.14%
 -------------------------------------------------------------------------------

 MEMORY| Estimated peak process memory [MiB]                                1982

 -------------------------------------------------------------------------------
 -                                                                             -
 -                         MESSAGE PASSING PERFORMANCE                         -
 -                                                                             -
 -------------------------------------------------------------------------------

 ROUTINE             CALLS      AVE VOLUME [Bytes]
 MP_Group           854660
 MP_Bcast           932924                    194.
 MP_Allreduce      5772814                   3445.
 MP_Sync           7271508
 MP_Alltoall       1401050                    212.
 MP_SendRecv         21590                   6499.
 MP_ISendRecv        22479                   6414.
 MP_Wait            656595
 MP_comm_split      490058
 MP_ISend          3944008                    673.
 MP_IRecv           599078                    189.
 -------------------------------------------------------------------------------


 -------------------------------------------------------------------------------
 -                                                                             -
 -                           R E F E R E N C E S                               -
 -                                                                             -
 -------------------------------------------------------------------------------
 
 CP2K version 2024.2 (Development Version), the CP2K developers group (2024).
 CP2K is freely available from https://www.cp2k.org/ .
 
 M. Graml, K. Zollner, D. Hernangmez-Prez, P. E. Faria Junior, J. Wilhelm.
 J. Chem. Theory Comput. 20, 2202-2208 (2024).
 Low-scaling GW algorithm applied to twisted transition-metal dichalcogenide 
 heterobilayers.
 https://doi.org/10.1021/acs.jctc.3c01230

 T. D. Kuehne, M. Iannuzzi, M. Del Ben, V. V. Rybkin, P. Seewald, F. Stein, T. 
 Laino, R. Z. Khaliullin, O. Schuett, F. Schiffmann, D. Golze, J. Wilhelm, S. 
 Chulkov, M. H. Bani-Hashemian, V. Weber, U. Borstnik, M. Taillefumier, A. S. 
 Jakobovits, A. Lazzaro, H. Pabst, T. Mueller, R. Schade, M. Guidon, S. 
 Andermatt, N. Holmberg, G. K. Schenter, A. Hehn, A. Bussy, F. Belleflamme, G. 
 Tabacchi, A. Gloess, M. Lass, I. Bethune, C. J. Mundy, C. Plessl, M. Watkins, 
 J. VandeVondele, M. Krack, J. Hutter.
 J. Chem. Phys. 152, 194103 (2020).
 CP2K: An electronic structure and molecular dynamics software package - 
 Quickstep: Efficient and accurate electronic structure calculations.
 https://doi.org/10.1063/5.0007045

 A. Togo, I. Tanaka.
 arXiv, 1808.01590 (2018).
 Spglib : a software library for crystal symmetry search.

 O. Schuett, P. Messmer, J. Hutter, J. VandeVondele.
 Electronic Structure Calculations on Graphics Processing Units, 173-190 (2016).
 GPU-Accelerated Sparse Matrix-Matrix Multiplication for Linear Scaling Density 
 Functional Theory.
 https://doi.org/10.1002/9781118670712.ch8

 A. Heinecke, G. Henry, M. Hutchinson, H. Pabst.
 Proceedings of Intl. Supercomputing Conference, 981-991 (2016).
 LIBXSMM: Accelerating Small Matrix Multiplications by Runtime Code Generation.
 https://doi.org/10.1109/SC.2016.83

 J. Hutter, M. Iannuzzi, F. Schiffmann, J. VandeVondele.
 WIREs Comput Mol Sci. 4, 15-25 (2014).
 CP2K: atomistic simulations of condensed matter systems.
 https://doi.org/10.1002/wcms.1159

 U. Borstnik, J. VandeVondele, V. Weber, J. Hutter.
 Parallel Comput. 40, 47-58 (2014).
 Sparse matrix multiplication: The distributed block-compressed sparse row 
 library.
 https://doi.org/10.1016/j.parco.2014.03.012

 A. Marek, V. Blum, R. Johanni, V. Havu, B. Lang, T. Auckenthaler, A. Heinecke, 
 H. Bungartz, H. Lederer.
 J. Phys. Condens. Matter 26, 213201 (2014).
 The ELPA library: scalable parallel eigenvalue solutions for electronic 
 structure theory and computational science.
 https://doi.org/10.1088/0953-8984/26/21/213201

 J. VandeVondele, M. Krack, F. Mohamed, M. Parrinello, T. Chassaing, J. Hutter.
 Comput. Phys. Commun. 167, 103-128 (2005).
 QUICKSTEP: Fast and accurate density functional calculations using a mixed 
 Gaussian and plane waves approach.
 https://doi.org/10.1016/j.cpc.2004.12.014

 M. Krack.
 Theor. Chem. Acc. 114, 145-152 (2005).
 Pseudopotentials for H to Kr optimized for gradient-corrected 
 exchange-correlation functionals.
 https://doi.org/10.1007/s00214-005-0655-y

 M. Frigo, S. G. Johnson.
 Proc. IEEE 93, 216-231 (2005).
 The design and implementation of FFTW3.
 https://doi.org/10.1109/JPROC.2004.840301

 C. Hartwigsen, S. Goedecker, J. Hutter.
 Phys. Rev. B 58, 3641-3662 (1998).
 Relativistic separable dual-space Gaussian pseudopotentials from H to Rn.
 https://doi.org/10.1103/PhysRevB.58.3641

 G. Lippert, J. Hutter, M. Parrinello.
 Mol. Phys. 92, 477-487 (1997).
 A hybrid Gaussian and plane wave density functional scheme.
 https://doi.org/10.1080/002689797170220

 S. Goedecker, M. Teter, J. Hutter.
 Phys. Rev. B 54, 1703-1710 (1996).
 Separable dual-space Gaussian pseudopotentials.
 https://doi.org/10.1103/PhysRevB.54.1703


 -------------------------------------------------------------------------------
 -                                                                             -
 -                                T I M I N G                                  -
 -                                                                             -
 -------------------------------------------------------------------------------
 SUBROUTINE                       CALLS  ASD         SELF TIME        TOTAL TIME
                                MAXIMUM       AVERAGE  MAXIMUM  AVERAGE  MAXIMUM
 CP2K                                 1  1.0     0.08     0.10 16458.31 16458.33
 qs_energies                          1  2.0     0.01     0.01 16457.72 16457.75
 qs_energies_properties               1  3.0     0.00     0.00 16399.48 16399.51
 post_scf_bandstructure               1  4.0     0.00     0.00 16399.48 16399.51
 gw                                   1  5.0     0.00     0.00 16393.66 16394.01
 gw_calc_small_cell_full_kp           1  6.0     0.00     0.00 16388.26 16388.61
 compute_W_real_space                 1  7.0     1.08     1.13 16039.90 16039.92
 compute_Minv_and_Vsqrt               1  8.0     0.02     0.02 15965.27 15965.31
 build_2c_coulomb_matrix_kp_sma       2  9.0 10818.28 11648.58 15139.98 15963.65
 build_2c_coulomb_matrix_kp_sma 2764800 10.0  3783.76  3822.85  3783.76  3822.85
 copy_dbcsr_to_fm                104130  8.1     0.85     0.87   886.54  1605.27
 mp_alltoall_i22                 347471 10.2   863.87  1602.75   863.87  1602.75
 dbcsr_desymmetrize_deep         157068  8.5     2.05     2.18   847.60  1568.64
 get_V_tr_R                          34  9.0     0.04     0.05   834.31  1554.30
 mp_sync                        7271508 10.4   446.89   521.90   446.89   521.90
 add_V_L                        2764800 10.0    21.17   346.87    21.17   346.87
 mp_sum_dm                      2764840 10.0   157.83   183.70   157.83   183.70
 compute_Sigma_c                      1  7.0     0.00     0.00   164.33   164.33
 compute_chi                          1  7.0     0.01     0.01   131.52   131.54
 dbt_total                      1942827  9.9     1.58     4.13    47.16   128.54
 G_occ_vir                          121  8.0     0.14     0.17    99.92   100.14
 dbt_contract                    977809 10.7     1.32     3.70    33.18    94.97
 dbcsr_complete_redistribute     190403  9.7     5.09     6.35    70.86    86.99
 dbt_tas_multiply                145422 12.9     0.07     0.20    27.85    81.61
 dbt_tas_total                   145422 13.9     3.17     9.55    27.80    81.47
 fm_to_local_tensor               61560  9.0     0.58     0.63    61.94    76.52
 parallel_gemm_cfm               151098  9.0     0.14     0.17    48.89    65.97
 parallel_gemm_cfm_cosma         151098 10.0    48.76    65.80    48.76    65.80
 contract_to_Sigma                  305  8.0     2.05     2.72    25.39    63.28
 scf_env_do_scf                       1  3.0     0.00     0.00    58.05    58.05
 scf_env_do_scf_inner_loop           41  4.0     0.00     0.00    58.05    58.05
 qs_scf_new_mos_kp                   41  5.0     0.00     0.00    55.93    55.93
 do_general_diag_kp                  41  6.0     0.16     0.16    55.93    55.93
 copy_fm_to_dbcsr                 86273  9.4     0.25     0.26    29.96    47.16
 compute_QP_energies                  1  7.0     0.02     0.02    46.07    46.07
 trafo_to_k_and_nn                38003  8.0     0.15     0.18    45.41    45.41
 dbt_tas_estimate_result_nze      72711 13.4     0.68     2.00    13.61    39.83
 contract_to_Sigma_3c_x_G        343125  9.0     0.26     0.58    16.86    36.16
 contract_M_occ_vir_to_chi          150  8.0     4.05     5.92    13.53    34.48
 add_ikp_to_rs                  *******  9.6    30.35    31.00    30.35    31.00
 local_dbt_to_global_fm              91  8.0     0.07     0.08    30.98    30.98
 trafo_rs_to_ikp                  43510  8.0     7.12     7.30    28.80    29.43
 add_rs_to_ikp                  *******  9.5    28.52    29.20    28.52    29.20
 dbt_copy                        972796 11.1     1.50     3.35    12.16    28.72
 G_times_3c                        4500  8.0     0.47     0.80    12.62    26.52
 fm_add_ikp_to_rs                 72600  9.0    11.47    11.79    25.23    25.83
 mp_sum_dv                        40535  8.9    10.31    24.95    10.31    24.95
 add_ikp_to_all_rs                40655  8.0     6.63     6.84    23.24    23.88
 contract_to_Sigma_contract        4575  9.0     0.54     1.12     5.09    22.95
 contract_W                         155  8.0     0.34     0.60    12.85    22.85
 global_matrix_to_local_matrix    61560 10.0     0.92     0.95    20.44    21.64
 reshape_mm_small                145422 14.9     3.23     9.53     7.73    21.51
 mp_cart_sub                     208339 10.1    19.07    19.10    19.07    19.10
 mp_cart_create                  958826 14.4    13.62    16.72    14.38    18.22
 dbt_tas_create_split            490054 15.1     0.30     0.66     7.23    17.01
 get_t_3c_int                    501424  9.6     0.74     1.52     8.48    16.98
 dbt_tas_create_split_rows_or_c  490054 16.1     0.81     1.93     6.94    16.35
 dbt_tas_distribution_new        445086 14.1     4.89     8.49     8.97    15.86
 reshape_mm_compatible           145422 14.9     1.30     3.82     5.33    15.37
 fm_trafo_rs_to_ikp               38003  9.0     5.94     6.14    12.78    13.29
 dbt_create_matrix                61560 10.0     0.66     0.68    12.57    12.98
 dbt_permute_index               708129 12.1     4.66    11.81     5.12    12.94
 fm_MWM_R_t_to_local_tensor_W_R      30  8.0     0.01     0.01    11.70    11.70
 dbcsr_finalize                  755362 11.1     1.52     1.94     6.81    11.24
 dbt_reshape                     497774 12.0     2.78     6.75     4.56    11.07
 local_dbt_to_global_mat          36855  9.0     0.15     0.15     8.74    10.54
 add_R                          7461835  9.2     4.42     5.89     7.54    10.08
 kpoint_density_transform            41  7.0     0.05     0.05     9.00     9.72
 mult_W_with_Minv                    30  8.0     0.01     0.01     9.61     9.62
 change_split                    202577 15.4     0.43     1.32     3.08     9.55
 power                            85205  8.0     9.21     9.31     9.21     9.31
 dbt_distribution_new_expert     138686 11.6     2.03     2.17     8.55     9.06
 local_matrix_to_global_matrix    36855 10.0     0.09     0.10     6.78     8.53
 dbt_create_template             398870  9.0     8.18     8.44     8.18     8.44
 dbt_create_3c_R1_R2                 62  8.0     0.40     0.41     7.58     7.83
 dbt_tas_replicate               145422 14.9     1.01     2.39     2.74     7.17
 cp_fm_start_copy_general         73800  7.3     0.51     0.87     6.09     7.06
 dbt_tas_dbm                     145422 14.9     0.07     0.18     2.26     6.78
 dbcsr_filter_anytype            277358 11.0     0.79     0.82     3.00     6.75
 mp_waitall_1                    582885 11.2     5.32     6.43     5.32     6.43
 send_data                        61560 11.0     0.09     0.10     5.34     6.39
 dbt_tas_create_new              593876 14.5     2.75     6.38     2.75     6.38
 dbm_multiply                    145422 16.9     2.11     6.34     2.11     6.34
 communicate_buffer               61560 12.0     0.23     1.57     5.25     6.30
 send_sizes_1                     61560 11.0     0.07     0.07     5.80     6.21
 is_cell_in_index_to_cell       *******  9.8     4.94     6.20     4.94     6.20
 mp_sum_i                        191432 13.6     5.78     6.19     5.78     6.19
 cp_cfm_heevd                      4321  8.0     6.07     6.12     6.07     6.12
 compute_Sigma_x                      1  7.0     0.00     0.00     6.10     6.10
 dbt_create_new                   69343 11.1     1.26     1.34     5.63     5.95
 mp_alltoall_i                  1400366 13.6     4.59     5.43     4.59     5.43
 create_and_init_bs_env_for_gw        1  6.0     0.01     0.01     5.40     5.40
 dbt_tas_reshape                 160978 15.6     0.48     1.30     1.90     5.04
 cp_cfm_geeig                      3075  7.0     0.01     0.02     4.63     4.65
 get_data                         61560 11.0     3.61     4.43     3.80     4.62
 dbt_align_index                 218133 11.4     0.15     0.44     1.59     4.58
 create_and_init_bs_env               1  5.0     0.00     0.00     4.56     4.56
 compute_cfm_mo_coeff_kp_and_ei       1  6.0     0.00     0.00     4.55     4.55
 dbcsr_create_new                616861 10.0     2.61     2.69     4.36     4.46
 dbcsr_merge_all                 289437 11.8     1.53     2.75     2.30     4.46
 mp_comm_dup                     417347 17.3     1.56     3.67     1.89     4.42
 dbt_tas_reserve_blocks_index   1343606 14.9     0.86     1.90     1.92     4.27
 mp_allgather_i                  147600  8.3     3.08     4.15     3.08     4.15
 dbcsr_work_create               446505 10.2     1.89     2.35     3.28     4.13
 mp_alltoall_d11v               1042413 10.6     1.61     4.11     1.61     4.11
 mp_comm_free                   2074602 13.1     2.27     4.08     2.27     4.08
 rskp_transform                   26469  7.1     0.08     3.86     0.08     3.86
 dbt_destroy                    1176342 10.1     2.87     3.43     3.22     3.80
 mp_comm_split_direct            490058 17.1     1.33     3.16     1.58     3.73
 dbcsr_data_release             7280473 11.7     3.01     3.68     3.01     3.68
 dbt_reserve_blocks_index_array  654824 13.0     0.29     0.81     1.32     3.66
 dbcsr_data_new                 4458167 11.1     3.03     3.51     3.03     3.51
 set_blocks                       36855 11.0     0.55     0.60     1.77     3.45
 rsmat_to_kp                       1869  7.3     0.02     0.02     3.36     3.39
 convert_to_new_pgrid            436266 14.9     0.78     2.30     1.13     3.39
 dbt_reserve_blocks_index        719234 13.6     0.47     1.10     1.37     3.21
 fm_to_local_array                  934  8.1     0.85     0.95     3.02     3.12
 send_sizes_2                     61560 11.0     0.06     0.07     2.67     3.10
 dbt_tas_copy                    317972 12.4     0.72     1.22     1.80     2.97
 dbcsr_iterator_start           1616864 11.0     2.03     2.08     2.85     2.94
 mp_comm_size                   4851168 15.2     1.22     2.81     1.22     2.81
 copy_fm_to_dbcsr_bc              86273 10.4     0.69     0.70     2.64     2.80
 mp_alltoall_i11v                728277 10.5     1.72     2.78     1.72     2.78
 dbt_tas_mm_2                     57860 16.0     0.01     0.08     0.35     2.69
 dbt_tas_reserve_blocks_templat  463394 13.6     0.62     1.17     1.38     2.66
 dbm_reserve_blocks             1489028 15.9     1.15     2.65     1.15     2.65
 dbt_remap                         7778 11.0     0.46     0.83     1.47     2.62
 cp_cfm_geeig_canon                 623  7.0     0.00     0.00     2.61     2.62
 mp_comm_rank                   4851168 15.2     1.12     2.61     1.12     2.61
 dbcsr_work_destroy_all          446505 11.2     1.01     1.36     1.96     2.60
 fill_buffer                      36855 11.0     2.07     2.26     2.19     2.37
 dbt_pgrid_create_expert         138689 12.6     0.41     0.44     2.21     2.34
 destroy_t_2d                        62  8.0     0.29     0.30     1.98     2.30
 dbt_tas_mm_3T                    51950 16.2     0.03     0.05     1.12     2.30
 dbcsr_iterator_stop            1616864 11.0     1.41     1.47     2.16     2.23
 mp_bcast_iv                     295205  8.3     1.92     2.17     1.92     2.17
 mp_cart_get                    3639859 15.3     0.89     2.07     0.89     2.07
 mp_sum_dm3                        1036  9.0     1.99     2.05     1.99     2.05
 trafo_V_xc_R_to_kp                   1  7.0     0.00     0.00     2.01     2.02
 dbt_copy_nocomm                 157050 11.0     0.13     0.67     0.38     1.92
 comm_size                        36855 11.0     0.06     0.06     1.73     1.85
 kpoint_density_matrices             41  7.0     0.01     0.01     1.43     1.85
 parallel_gemm_fm                 12300  8.0     0.01     0.01     1.42     1.83
 parallel_gemm_fm_cosma           12300  9.0     1.40     1.82     1.40     1.82
 dbcsr_set                       622518 10.6     0.61     0.63     1.60     1.67
 dbt_nd_mp_comm                   69338 11.1     0.13     0.14     1.55     1.65
 -------------------------------------------------------------------------------

 The number of warnings for this run is : 0
 
 -------------------------------------------------------------------------------
  **** **** ******  **  PROGRAM ENDED AT                 2024-08-16 22:20:51.249
 ***** ** ***  *** **   PROGRAM RAN ON                                  n2cn0174
 **    ****   ******    PROGRAM RAN BY                                  metdyn02
 ***** **    ** ** **   PROGRAM PROCESS ID                               2375333
  **** **  *******  **  PROGRAM STOPPED IN /scratch/hpc-prf-metdyn/metdyn02_Remi
                                           /01_H2_GW_test/01_1x1x1
