 DBCSR| CPU Multiplication driver                                           XSMM (U)
 DBCSR| Multrec recursion limit                                              512 (U)
 DBCSR| Multiplication stack size                                           1000 (D)
 DBCSR| Maximum elements for images                                    UNLIMITED (U)
 DBCSR| Multiplicative factor virtual images                                   1 (U)
 DBCSR| Use multiplication densification                                       T (D)
 DBCSR| Multiplication size stacks                                             3 (U)
 DBCSR| Use memory pool for CPU allocation                                     F (U)
 DBCSR| Number of 3D layers                                               SINGLE (U)
 DBCSR| Use MPI memory allocation                                              F (U)
 DBCSR| Use RMA algorithm                                                      F (U)
 DBCSR| Use Communication thread                                               T (U)
 DBCSR| Communication thread load                                             83 (D)
 DBCSR| MPI: My process id                                                     0
 DBCSR| MPI: Number of processes                                             256
 DBCSR| OMP: Current number of threads                                         2
 DBCSR| OMP: Max number of threads                                             2
 DBCSR| Split modifier for TAS multiplication algorithm                  1.0E+00 (U)


  **** **** ******  **  PROGRAM STARTED AT               2024-09-16 14:32:19.201
 ***** ** ***  *** **   PROGRAM STARTED ON                             n2lcn0124
 **    ****   ******    PROGRAM STARTED BY                              metdyn02
 ***** **    ** ** **   PROGRAM PROCESS ID                                383707
  **** **  *******  **  PROGRAM STARTED IN /scratch/hpc-prf-metdyn/metdyn02_Remi
                                           /02_Si

 CP2K| version string:                 CP2K version 2024.2 (Development Version)
 CP2K| source code revision number:                                  git:7adf92c
 CP2K| cp2kflags: omp libint fftw3 libxc libgrpp elpa parallel scalapack mpi_f08
 CP2K|             cosma deepmd xsmm plumed2 has_ieee_exceptions spglib sirius c
 CP2K|            check_diag libvori libbqb libvdwxc hdf5
 CP2K| is freely available from                            https://www.cp2k.org/
 CP2K| Program compiled at                         Mon Sep 16 11:37:43 CEST 2024
 CP2K| Program compiled on                                              n2login2
 CP2K| Program compiled for                                                local
 CP2K| Data directory path    /opt/software/pc2/EB-SW/software/CP2K/2024.1-foss-
 CP2K| Input file name                                                    GW.inp

 GLOBAL| Force Environment number                                              1
 GLOBAL| Basis set file name            /pc2/groups/hpc-prf-metdyn/metdyn02_Remi
 GLOBAL| Potential file name            /pc2/groups/hpc-prf-metdyn/metdyn02_Remi
 GLOBAL| MM Potential file name                                     MM_POTENTIAL
 GLOBAL| Coordinate file name                                      __STD_INPUT__
 GLOBAL| Method name                                                        CP2K
 GLOBAL| Project name                                                         Si
 GLOBAL| Run type                                                         ENERGY
 GLOBAL| FFT library                                                       FFTW3
 GLOBAL| Diagonalization library                                            ELPA
 GLOBAL| DGEMM library                                                      BLAS
 GLOBAL| Minimum number of eigenvectors for ELPA usage                        16
 GLOBAL| Orthonormality check for eigenvectors enabled                 5.000E-14
 GLOBAL| Matrix multiplication library                                     COSMA
 GLOBAL| All-to-all communication in single precision                          F
 GLOBAL| FFTs using library dependent lengths                                  F
 GLOBAL| Grid backend                                                       AUTO
 GLOBAL| Global print level                                               MEDIUM
 GLOBAL| MPI I/O enabled                                                       T
 GLOBAL| Total number of message passing processes                           256
 GLOBAL| Number of threads for this process                                    2
 GLOBAL| This output is from process                                           0
 GLOBAL| Stack size for threads created by OpenMP (OMP_STACKSIZE)        default
 GLOBAL| CPU model name                          AMD EPYC 7763 64-Core Processor
 GLOBAL| CPUID                                                              1002

 MEMORY| system memory details [Kb]
 MEMORY|                        rank 0           min           max       average
 MEMORY| MemTotal           1056622248    1056622244    1056622248    1056622247
 MEMORY| MemFree            1041560220    1039270620    1043264092    1040921317
 MEMORY| Buffers                259312         30704        278796        222571
 MEMORY| Cached                5382500       3959432       7376768       5984713
 MEMORY| Slab                  1520648       1456492       1918468       1638086
 MEMORY| SReclaimable           261328        224332        468700        335070
 MEMORY| MemLikelyFree      1047463360    1047257320    1047610460    1047463673


 *** Fundamental physical constants (SI units) ***

 *** Literature: B. J. Mohr and B. N. Taylor,
 ***             CODATA recommended values of the fundamental physical
 ***             constants: 2006, Web Version 5.1
 ***             http://physics.nist.gov/constants

 Speed of light in vacuum [m/s]                             2.99792458000000E+08
 Magnetic constant or permeability of vacuum [N/A**2]       1.25663706143592E-06
 Electric constant or permittivity of vacuum [F/m]          8.85418781762039E-12
 Planck constant (h) [J*s]                                  6.62606896000000E-34
 Planck constant (h-bar) [J*s]                              1.05457162825177E-34
 Elementary charge [C]                                      1.60217648700000E-19
 Electron mass [kg]                                         9.10938215000000E-31
 Electron g factor [ ]                                     -2.00231930436220E+00
 Proton mass [kg]                                           1.67262163700000E-27
 Fine-structure constant                                    7.29735253760000E-03
 Rydberg constant [1/m]                                     1.09737315685270E+07
 Avogadro constant [1/mol]                                  6.02214179000000E+23
 Boltzmann constant [J/K]                                   1.38065040000000E-23
 Atomic mass unit [kg]                                      1.66053878200000E-27
 Bohr radius [m]                                            5.29177208590000E-11

 *** Conversion factors ***

 [u] -> [a.u.]                                              1.82288848426455E+03
 [Angstrom] -> [Bohr] = [a.u.]                              1.88972613288564E+00
 [a.u.] = [Bohr] -> [Angstrom]                              5.29177208590000E-01
 [a.u.] -> [s]                                              2.41888432650478E-17
 [a.u.] -> [fs]                                             2.41888432650478E-02
 [a.u.] -> [J]                                              4.35974393937059E-18
 [a.u.] -> [N]                                              8.23872205491840E-08
 [a.u.] -> [K]                                              3.15774647902944E+05
 [a.u.] -> [kJ/mol]                                         2.62549961709828E+03
 [a.u.] -> [kcal/mol]                                       6.27509468713739E+02
 [a.u.] -> [Pa]                                             2.94210107994716E+13
 [a.u.] -> [bar]                                            2.94210107994716E+08
 [a.u.] -> [atm]                                            2.90362800883016E+08
 [a.u.] -> [eV]                                             2.72113838565563E+01
 [a.u.] -> [Hz]                                             6.57968392072181E+15
 [a.u.] -> [1/cm] (wave numbers)                            2.19474631370540E+05
 [a.u./Bohr**2] -> [1/cm]                                   5.14048714338585E+03
 

 CELL_TOP| Volume [angstrom^3]:                                        40.025752
 CELL_TOP| Vector a [angstrom     2.715     2.715     0.000   |a| =     3.839590
 CELL_TOP| Vector b [angstrom     0.000     2.715     2.715   |b| =     3.839590
 CELL_TOP| Vector c [angstrom     2.715     0.000     2.715   |c| =     3.839590
 CELL_TOP| Angle (b,c), alpha [degree]:                                60.000000
 CELL_TOP| Angle (a,c), beta  [degree]:                                60.000000
 CELL_TOP| Angle (a,b), gamma [degree]:                                60.000000
 CELL_TOP| Numerically orthorhombic:                                          NO
 CELL_TOP| Periodicity                                                       XYZ

 GENERATE|  Preliminary Number of Bonds generated:                             0
 GENERATE|  Achieved consistency in connectivity generation.

 CELL| Volume [angstrom^3]:                                            40.025752
 CELL| Vector a [angstrom]:       2.715     2.715     0.000   |a| =     3.839590
 CELL| Vector b [angstrom]:       0.000     2.715     2.715   |b| =     3.839590
 CELL| Vector c [angstrom]:       2.715     0.000     2.715   |c| =     3.839590
 CELL| Angle (b,c), alpha [degree]:                                    60.000000
 CELL| Angle (a,c), beta  [degree]:                                    60.000000
 CELL| Angle (a,b), gamma [degree]:                                    60.000000
 CELL| Numerically orthorhombic:                                              NO
 CELL| Periodicity                                                           XYZ

 CELL_REF| Volume [angstrom^3]:                                        40.025752
 CELL_REF| Vector a [angstrom     2.715     2.715     0.000   |a| =     3.839590
 CELL_REF| Vector b [angstrom     0.000     2.715     2.715   |b| =     3.839590
 CELL_REF| Vector c [angstrom     2.715     0.000     2.715   |c| =     3.839590
 CELL_REF| Angle (b,c), alpha [degree]:                                60.000000
 CELL_REF| Angle (a,c), beta  [degree]:                                60.000000
 CELL_REF| Angle (a,b), gamma [degree]:                                60.000000
 CELL_REF| Numerically orthorhombic:                                          NO
 CELL_REF| Periodicity                                                       XYZ

 *******************************************************************************
                                    Kpoints
 *******************************************************************************
 BRILLOUIN| K-point scheme                                        Monkhorst-Pack
 BRILLOUIN| K-Point grid                                             4    4    4
 BRILLOUIN| Accuracy in Symmetry determination                      0.100000E-05
 BRILLOUIN| K-Point point group symmetrization                               OFF
 BRILLOUIN| Wavefunction type                                            COMPLEX
 BRILLOUIN| List of Kpoints [2 Pi/Bohr]                                       32
 BRILLOUIN| Number           Weight            X              Y              Z
 BRILLOUIN|     1           0.03125       -0.37500       -0.37500       -0.37500
 BRILLOUIN|     2           0.03125       -0.37500       -0.37500       -0.12500
 BRILLOUIN|     3           0.03125       -0.37500       -0.37500        0.12500
 BRILLOUIN|     4           0.03125       -0.37500       -0.37500        0.37500
 BRILLOUIN|     5           0.03125       -0.37500       -0.12500       -0.37500
 BRILLOUIN|     6           0.03125       -0.37500       -0.12500       -0.12500
 BRILLOUIN|     7           0.03125       -0.37500       -0.12500        0.12500
 BRILLOUIN|     8           0.03125       -0.37500       -0.12500        0.37500
 BRILLOUIN|     9           0.03125       -0.37500        0.12500       -0.37500
 BRILLOUIN|    10           0.03125       -0.37500        0.12500       -0.12500
 BRILLOUIN|    11           0.03125       -0.37500        0.12500        0.12500
 BRILLOUIN|    12           0.03125       -0.37500        0.12500        0.37500
 BRILLOUIN|    13           0.03125       -0.37500        0.37500       -0.37500
 BRILLOUIN|    14           0.03125       -0.37500        0.37500       -0.12500
 BRILLOUIN|    15           0.03125       -0.37500        0.37500        0.12500
 BRILLOUIN|    16           0.03125       -0.37500        0.37500        0.37500
 BRILLOUIN|    17           0.03125       -0.12500       -0.37500       -0.37500
 BRILLOUIN|    18           0.03125       -0.12500       -0.37500       -0.12500
 BRILLOUIN|    19           0.03125       -0.12500       -0.37500        0.12500
 BRILLOUIN|    20           0.03125       -0.12500       -0.37500        0.37500
 BRILLOUIN|    21           0.03125       -0.12500       -0.12500       -0.37500
 BRILLOUIN|    22           0.03125       -0.12500       -0.12500       -0.12500
 BRILLOUIN|    23           0.03125       -0.12500       -0.12500        0.12500
 BRILLOUIN|    24           0.03125       -0.12500       -0.12500        0.37500
 BRILLOUIN|    25           0.03125       -0.12500        0.12500       -0.37500
 BRILLOUIN|    26           0.03125       -0.12500        0.12500       -0.12500
 BRILLOUIN|    27           0.03125       -0.12500        0.12500        0.12500
 BRILLOUIN|    28           0.03125       -0.12500        0.12500        0.37500
 BRILLOUIN|    29           0.03125       -0.12500        0.37500       -0.37500
 BRILLOUIN|    30           0.03125       -0.12500        0.37500       -0.12500
 BRILLOUIN|    31           0.03125       -0.12500        0.37500        0.12500
 BRILLOUIN|    32           0.03125       -0.12500        0.37500        0.37500
 *******************************************************************************

 *******************************************************************************
 *******************************************************************************
 **                                                                           **
 **     #####                         ##              ##                      **
 **    ##   ##            ##          ##              ##                      **
 **   ##     ##                       ##            ######                    **
 **   ##     ##  ##   ##  ##   #####  ##  ##   ####   ##    #####    #####    **
 **   ##     ##  ##   ##  ##  ##      ## ##   ##      ##   ##   ##  ##   ##   **
 **   ##  ## ##  ##   ##  ##  ##      ####     ###    ##   ######   ######    **
 **    ##  ###   ##   ##  ##  ##      ## ##      ##   ##   ##       ##        **
 **     #######   #####   ##   #####  ##  ##  ####    ##    #####   ##        **
 **           ##                                                    ##        **
 **                                                                           **
 **                                                ... make the atoms dance   **
 **                                                                           **
 **            Copyright (C) by CP2K developers group (2000-2024)             **
 **                      J. Chem. Phys. 152, 194103 (2020)                    **
 **                                                                           **
 *******************************************************************************

 DFT| Spin restricted Kohn-Sham (RKS) calculation                            RKS
 DFT| Multiplicity                                                             1
 DFT| Number of spin states                                                    1
 DFT| Charge                                                                   0
 DFT| Self-interaction correction (SIC)                                       NO
 DFT| Cutoffs: density                                              1.000000E-10
 DFT|          gradient                                             1.000000E-10
 DFT|          tau                                                  1.000000E-10
 DFT|          cutoff_smoothing_range                               0.000000E+00
 DFT| XC density smoothing                                                  NONE
 DFT| XC derivatives                                                          PW

 FUNCTIONAL| PADE:
 FUNCTIONAL| S. Goedecker, M. Teter and J. Hutter, Phys. Rev. B 54, 1703 (1996) 


 QS| Method:                                                                 GPW
 QS| Density plane wave grid type                        NON-SPHERICAL FULLSPACE
 QS| Number of grid levels:                                                    4
 QS| Density cutoff [a.u.]:                                                250.0
 QS| Multi grid cutoff [a.u.]: 1) grid level                               250.0
 QS|                           2) grid level                                83.3
 QS|                           3) grid level                                27.8
 QS|                           4) grid level                                 9.3
 QS| Grid level progression factor:                                          3.0
 QS| Relative density cutoff [a.u.]:                                        50.0
 QS| Interaction thresholds: eps_pgf_orb:                                1.0E-12
 QS|                         eps_filter_matrix:                          0.0E+00
 QS|                         eps_core_charge:                            1.0E-14
 QS|                         eps_rho_gspace:                             1.0E-12
 QS|                         eps_rho_rspace:                             1.0E-12
 QS|                         eps_gvg_rspace:                             1.0E-06
 QS|                         eps_ppl:                                    1.0E-02
 QS|                         eps_ppnl:                                   1.0E-08


 ATOMIC KIND INFORMATION

  1. Atomic kind: Si                                    Number of atoms:       2

     Orbital Basis Set                                      SZV-MOLOPT-SR-GTH-q4

       Number of orbital shell sets:                                           1
       Number of orbital shells:                                               2
       Number of primitive Cartesian functions:                                4
       Number of Cartesian basis functions:                                    4
       Number of spherical basis functions:                                    4
       Norm type:                                                              2

       Normalised Cartesian orbitals:

                        Set   Shell   Orbital            Exponent    Coefficient

                          1       1    2s                1.256768       0.294045
                                                         0.506394      -0.015884
                                                         0.238884      -0.207657
                                                         0.087337      -0.036225

                          1       2    3px               1.256768       0.152274
                                                         0.506394      -0.154145
                                                         0.238884      -0.115581
                                                         0.087337      -0.028372
                          1       2    3py               1.256768       0.152274
                                                         0.506394      -0.154145
                                                         0.238884      -0.115581
                                                         0.087337      -0.028372
                          1       2    3pz               1.256768       0.152274
                                                         0.506394      -0.154145
                                                         0.238884      -0.115581
                                                         0.087337      -0.028372

     RI Auxiliary Basis Set                          RI_92_7_8_8_3_0_0_0_8.3e-08

       Number of orbital shell sets:                                          26
       Number of orbital shells:                                              26
       Number of primitive Cartesian functions:                               26
       Number of Cartesian basis functions:                                  109
       Number of spherical basis functions:                                   92
       Norm type:                                                              2

       Normalised Cartesian orbitals:

                        Set   Shell   Orbital            Exponent    Coefficient

                          1       1    1s                0.163791       0.183496

                          2       1   16dx2              0.179492       0.081469
                          2       1   16dxy              0.179492       0.141108
                          2       1   16dxz              0.179492       0.141108
                          2       1   16dy2              0.179492       0.081469
                          2       1   16dyz              0.179492       0.141108
                          2       1   16dz2              0.179492       0.081469

                          3       1    8px               0.205732       0.197500
                          3       1    8py               0.205732       0.197500
                          3       1    8pz               0.205732       0.197500

                          4       1   24fx3              0.252776       0.066698
                          4       1   24fx2y             0.252776       0.149141
                          4       1   24fx2z             0.252776       0.149141
                          4       1   24fxy2             0.252776       0.149141
                          4       1   24fxyz             0.252776       0.258319
                          4       1   24fxz2             0.252776       0.149141
                          4       1   24fy3              0.252776       0.066698
                          4       1   24fy2z             0.252776       0.149141
                          4       1   24fyz2             0.252776       0.149141
                          4       1   24fz3              0.252776       0.066698

                          5       1    2s                0.270579       0.267381

                          6       1   17dx2              0.281386       0.178932
                          6       1   17dxy              0.281386       0.309919
                          6       1   17dxz              0.281386       0.309919
                          6       1   17dy2              0.281386       0.178932
                          6       1   17dyz              0.281386       0.309919
                          6       1   17dz2              0.281386       0.178932

                          7       1    9px               0.324404       0.348978
                          7       1    9py               0.324404       0.348978
                          7       1    9pz               0.324404       0.348978

                          8       1    3s                0.400109       0.358545

                          9       1   18dx2              0.449186       0.405654
                          9       1   18dxy              0.449186       0.702613
                          9       1   18dxz              0.449186       0.702613
                          9       1   18dy2              0.449186       0.405654
                          9       1   18dyz              0.449186       0.702613
                          9       1   18dz2              0.449186       0.405654

                         10       1   10px               0.511529       0.616634
                         10       1   10py               0.511529       0.616634
                         10       1   10pz               0.511529       0.616634

                         11       1   25fx3              0.526245       0.347238
                         11       1   25fx2y             0.526245       0.776449
                         11       1   25fx2z             0.526245       0.776449
                         11       1   25fxy2             0.526245       0.776449
                         11       1   25fxyz             0.526245       1.344849
                         11       1   25fxz2             0.526245       0.776449
                         11       1   25fy3              0.526245       0.347238
                         11       1   25fy2z             0.526245       0.776449
                         11       1   25fyz2             0.526245       0.776449
                         11       1   25fz3              0.526245       0.347238

                         12       1    4s                0.675729       0.531177

                         13       1   19dx2              0.701476       0.884976
                         13       1   19dxy              0.701476       1.532823
                         13       1   19dxz              0.701476       1.532823
                         13       1   19dy2              0.701476       0.884976
                         13       1   19dyz              0.701476       1.532823
                         13       1   19dz2              0.701476       0.884976

                         14       1   11px               0.806592       1.089576
                         14       1   11py               0.806592       1.089576
                         14       1   11pz               0.806592       1.089576

                         15       1   26fx3              1.095570       1.807775
                         15       1   26fx2y             1.095570       4.042308
                         15       1   26fx2z             1.095570       4.042308
                         15       1   26fxy2             1.095570       4.042308
                         15       1   26fxyz             1.095570       7.001483
                         15       1   26fxz2             1.095570       4.042308
                         15       1   26fy3              1.095570       1.807775
                         15       1   26fy2z             1.095570       4.042308
                         15       1   26fyz2             1.095570       4.042308
                         15       1   26fz3              1.095570       1.807775

                         16       1   20dx2              1.101332       1.948798
                         16       1   20dxy              1.101332       3.375416
                         16       1   20dxz              1.101332       3.375416
                         16       1   20dy2              1.101332       1.948798
                         16       1   20dyz              1.101332       3.375416
                         16       1   20dz2              1.101332       1.948798

                         17       1    5s                1.171927       0.802759

                         18       1   12px               1.271855       1.925251
                         18       1   12py               1.271855       1.925251
                         18       1   12pz               1.271855       1.925251

                         19       1   21dx2              1.759919       4.426103
                         19       1   21dxy              1.759919       7.666235
                         19       1   21dxz              1.759919       7.666235
                         19       1   21dy2              1.759919       4.426103
                         19       1   21dyz              1.759919       7.666235
                         19       1   21dz2              1.759919       4.426103

                         20       1   13px               2.005495       3.401866
                         20       1   13py               2.005495       3.401866
                         20       1   13pz               2.005495       3.401866

                         21       1    6s                2.121861       1.252990

                         22       1   22dx2              2.813182      10.057862
                         22       1   22dxy              2.813182      17.420728
                         22       1   22dxz              2.813182      17.420728
                         22       1   22dy2              2.813182      10.057862
                         22       1   22dyz              2.813182      17.420728
                         22       1   22dz2              2.813182      10.057862

                         23       1   14px               3.162318       6.011004
                         23       1   14py               3.162318       6.011004
                         23       1   14pz               3.162318       6.011004

                         24       1    7s                3.992893       2.013149

                         25       1   23dx2              4.489144      22.787442
                         25       1   23dxy              4.489144      39.469007
                         25       1   23dxz              4.489144      39.469007
                         25       1   23dy2              4.489144      22.787442
                         25       1   23dyz              4.489144      39.469007
                         25       1   23dz2              4.489144      22.787442

                         26       1   15px               4.986427      10.621281
                         26       1   15py               4.986427      10.621281
                         26       1   15pz               4.986427      10.621281

       Atomic covalent radius [Angstrom]:                                  1.110

       Atomic van der Waals radius [Angstrom]:                             2.100

     GTH Potential information for                                   GTH-PADE-q4

       Description:                       Goedecker-Teter-Hutter pseudopotential
                                           Goedecker et al., PRB 54, 1703 (1996)
                                          Hartwigsen et al., PRB 58, 3641 (1998)
                                                      Krack, TCA 114, 145 (2005)

       Gaussian exponent of the core charge distribution:               2.582645
       Electronic configuration (s p d ...):                               2   2

       Parameters of the local part of the GTH pseudopotential:

                          rloc        C1          C2          C3          C4
                        0.440000   -7.336103

       Parameters of the non-local part of the GTH (SOC) pseudopotential:

                   l      r(l)      h(i,j,l)
                                    k(i,j,l)
                   0    0.422738    5.906928   -1.261894
                                   -1.261894    3.258196
                   1    0.484278    2.727013    0.000000
                                    0.000000    0.000000
                                    0.000373   -0.006101
                                   -0.006101    0.014437


 MOLECULE KIND INFORMATION


 All atoms are their own molecule, skipping detailed information


 TOTAL NUMBERS AND MAXIMUM NUMBERS

  Total number of            - Atomic kinds:                                   1
                             - Atoms:                                          2
                             - Shell sets:                                     2
                             - Shells:                                         4
                             - Primitive Cartesian functions:                  8
                             - Cartesian basis functions:                      8
                             - Spherical basis functions:                      8

  Maximum angular momentum of- Orbital basis functions:                        1
                             - Local part of the GTH pseudopotential:          0
                             - Non-local part of the GTH pseudopotential:      3


 MODULE QUICKSTEP: ATOMIC COORDINATES IN ANGSTROM

   Atom Kind Element         X             Y             Z       Z(eff)     Mass
      1    1 Si   14      0.000000      0.000000      0.000000   4.0000  28.0855
      2    1 Si   14      1.357500      1.357500      1.357500   4.0000  28.0855



 SCF PARAMETERS         Density guess:                                   RESTART
                        --------------------------------------------------------
                        max_scf:                                            1000
                        max_scf_history:                                       0
                        max_diis:                                              4
                        --------------------------------------------------------
                        eps_scf:                                        1.00E-09
                        eps_scf_history:                                0.00E+00
                        eps_diis:                                       1.00E-01
                        eps_eigval:                                     1.00E-05
                        --------------------------------------------------------
                        level_shift [a.u.]:                             0.000000
                        added MOs                                         4    0
                        --------------------------------------------------------
                        Mixing method:                            BROYDEN_MIXING
                                                charge density mixing in g-space
                        --------------------------------------------------------
                        No outer SCF

 PW_GRID| Information for grid number                                          1
 PW_GRID| Grid distributed over                                   256 processors
 PW_GRID| Real space group dimensions                                    16   16
 PW_GRID| the grid is blocked:                                               YES
 PW_GRID| Cutoff [a.u.]                                                    250.0
 PW_GRID| spherical cutoff:                                                   NO
 PW_GRID|   Bounds   1            -27      26                Points:          54
 PW_GRID|   Bounds   2            -27      26                Points:          54
 PW_GRID|   Bounds   3            -27      26                Points:          54
 PW_GRID| Volume element (a.u.^3)  0.1715E-02     Volume (a.u.^3)       270.1072
 PW_GRID| Grid span                                                    FULLSPACE
 PW_GRID|   Distribution                         Average         Max         Min
 PW_GRID|   G-Vectors                              615.1         864         486
 PW_GRID|   G-Rays                                  11.4          16           9
 PW_GRID|   Real Space Points                      615.1         864         486

 PW_GRID| Information for grid number                                          2
 PW_GRID| Number of the reference grid                                         1
 PW_GRID| Grid distributed over                                   256 processors
 PW_GRID| Real space group dimensions                                    16   16
 PW_GRID| the grid is blocked:                                                NO
 PW_GRID| Cutoff [a.u.]                                                     83.3
 PW_GRID| spherical cutoff:                                                   NO
 PW_GRID|   Bounds   1            -15      14                Points:          30
 PW_GRID|   Bounds   2            -15      14                Points:          30
 PW_GRID|   Bounds   3            -15      14                Points:          30
 PW_GRID| Volume element (a.u.^3)  0.1000E-01     Volume (a.u.^3)       270.1072
 PW_GRID| Grid span                                                    FULLSPACE
 PW_GRID|   Distribution                         Average         Max         Min
 PW_GRID|   G-Vectors                              105.5         480           0
 PW_GRID|   G-Rays                                   3.5          16           0
 PW_GRID|   Real Space Points                      105.5         120          30

 PW_GRID| Information for grid number                                          3
 PW_GRID| Number of the reference grid                                         1
 PW_GRID| Grid distributed over                                   256 processors
 PW_GRID| Real space group dimensions                                    16   16
 PW_GRID| the grid is blocked:                                                NO
 PW_GRID| Cutoff [a.u.]                                                     27.8
 PW_GRID| spherical cutoff:                                                   NO
 PW_GRID|   Bounds   1             -9       8                Points:          18
 PW_GRID|   Bounds   2             -9       8                Points:          18
 PW_GRID|   Bounds   3             -9       8                Points:          18
 PW_GRID| Volume element (a.u.^3)  0.4631E-01     Volume (a.u.^3)       270.1072
 PW_GRID| Grid span                                                    FULLSPACE
 PW_GRID|   Distribution                         Average         Max         Min
 PW_GRID|   G-Vectors                               22.8         288           0
 PW_GRID|   G-Rays                                   1.3          16           0
 PW_GRID|   Real Space Points                       22.8          72          18

 PW_GRID| Information for grid number                                          4
 PW_GRID| Number of the reference grid                                         1
 PW_GRID| Grid distributed over                                   256 processors
 PW_GRID| Real space group dimensions                                    16   16
 PW_GRID| the grid is blocked:                                                NO
 PW_GRID| Cutoff [a.u.]                                                      9.3
 PW_GRID| spherical cutoff:                                                   NO
 PW_GRID|   Bounds   1             -4       4                Points:           9
 PW_GRID|   Bounds   2             -4       4                Points:           9
 PW_GRID|   Bounds   3             -4       4                Points:           9
 PW_GRID| Volume element (a.u.^3)  0.3705         Volume (a.u.^3)       270.1072
 PW_GRID| Grid span                                                    FULLSPACE
 PW_GRID|   Distribution                         Average         Max         Min
 PW_GRID|   G-Vectors                                2.8          81           0
 PW_GRID|   G-Rays                                   0.3           9           0
 PW_GRID|   Real Space Points                        2.8           9           0

 POISSON| Solver                                                        PERIODIC
 POISSON| Periodicity                                                        XYZ

 RS_GRID| Information for grid number                                          1
 RS_GRID|   Bounds   1            -27      26                Points:          54
 RS_GRID|   Bounds   2            -27      26                Points:          54
 RS_GRID|   Bounds   3            -27      26                Points:          54
 RS_GRID| Real space fully replicated
 RS_GRID| Group size                                                           1

 RS_GRID| Information for grid number                                          2
 RS_GRID|   Bounds   1            -15      14                Points:          30
 RS_GRID|   Bounds   2            -15      14                Points:          30
 RS_GRID|   Bounds   3            -15      14                Points:          30
 RS_GRID| Real space fully replicated
 RS_GRID| Group size                                                           1

 RS_GRID| Information for grid number                                          3
 RS_GRID|   Bounds   1             -9       8                Points:          18
 RS_GRID|   Bounds   2             -9       8                Points:          18
 RS_GRID|   Bounds   3             -9       8                Points:          18
 RS_GRID| Real space fully replicated
 RS_GRID| Group size                                                           1

 RS_GRID| Information for grid number                                          4
 RS_GRID|   Bounds   1             -4       4                Points:           9
 RS_GRID|   Bounds   2             -4       4                Points:           9
 RS_GRID|   Bounds   3             -4       4                Points:           9
 RS_GRID| Real space fully replicated
 RS_GRID| Group size                                                           1

 Number of electrons:                                                          8
 Number of occupied orbitals:                                                  4
 Number of molecular orbitals:                                                 8

 Number of orbital functions:                                                  8
 Number of independent orbital functions:                                      8

 Extrapolation method: initial_guess


 SCF WAVEFUNCTION OPTIMIZATION

  Step     Update method      Time    Convergence         Total energy    Change
  ------------------------------------------------------------------------------
     1 NoMix/Diag. 0.10E+00    0.8     1.07312738        -7.8823295647 -7.88E+00
     2 Broy./Diag. 0.10E+00    0.8     0.00006101        -7.8823897061 -6.01E-05
     3 Broy./Diag. 0.10E+00    0.8     0.00094636        -7.8822892716  1.00E-04
     4 Broy./Diag. 0.10E+00    0.8     0.00001589        -7.8822731519  1.61E-05
     5 Broy./Diag. 0.10E+00    0.8     0.00015114        -7.8822482314  2.49E-05
     6 Broy./Diag. 0.10E+00    0.8     0.00000619        -7.8822491217 -8.90E-07
     7 Broy./Diag. 0.10E+00    0.8     0.00003197        -7.8822667839 -1.77E-05
     8 Broy./Diag. 0.10E+00    0.8     0.00000033        -7.8822678216 -1.04E-06
     9 Broy./Diag. 0.10E+00    0.8     0.00000192        -7.8822749185 -7.10E-06
    10 Broy./Diag. 0.10E+00    0.8     0.00000016        -7.8822751469 -2.28E-07
    11 Broy./Diag. 0.10E+00    0.8     0.00000102        -7.8822757626 -6.16E-07
    12 Broy./Diag. 0.10E+00    0.8     0.00000002        -7.8822758117 -4.91E-08
    13 Broy./Diag. 0.10E+00    0.8     0.00000014        -7.8822758859 -7.43E-08
    14 Broy./Diag. 0.10E+00    0.8     3.6306E-10        -7.8822758934 -7.43E-09

  *** SCF run converged in    14 steps ***


  Electronic density on regular grids:         -8.0000000000        0.0000000000
  Core density on regular grids:                8.0000000000       -0.0000000000
  Total charge density on r-space grids:       -0.0000000000
  Total charge density g-space grids:          -0.0000000000

  Overlap energy of the core charge distribution:               0.00000000001339
  Self energy of the core charge distribution:                -20.51598485628205
  Core Hamiltonian energy:                                      4.37631078665607
  Hartree energy:                                              10.65041978926241
  Exchange-correlation energy:                                 -2.39302161302135

  Total energy:                                                -7.88227589337153

 !-----------------------------------------------------------------------------!
                     Mulliken Population Analysis

 #  Atom  Element  Kind  Atomic population                           Net charge
       1     Si       1          4.000000                             -0.000000
       2     Si       1          4.000000                              0.000000
 # Total charge                              8.000000                 -0.000000

 !-----------------------------------------------------------------------------!

 !-----------------------------------------------------------------------------!
                           Hirshfeld Charges

  #Atom  Element  Kind  Ref Charge     Population                    Net charge
      1       Si     1       4.000          4.000                        -0.000
      2       Si     1       4.000          4.000                        -0.000

  Total Charge                                                           -0.000
 !-----------------------------------------------------------------------------!
  
 -------------------------------------------------------------------------------
 -                                                                             -
 -                          BANDSTRUCTURE CALCULATION                          -
 -                                                                             -
 -------------------------------------------------------------------------------
  
 Number of occupied molecular orbitals (MOs) = Number of occupied bands        4
 Number of unoccupied (= virtual) MOs = Number of unoccupied bands             4
 Number of Gaussian basis functions for MOs                                    8
 Number of cells considered in the DFT calculation                           730
 Number of cells for G, χ, W, Σ                                               27
 Number of special k-points for the bandstructure                              4
 Number of k-points for the bandstructure                                     98
  
 -------------------------------------------------------------------------------
 -                                                                             -
 -                              GW CALCULATION                                 -
 -                                                                             -
 -------------------------------------------------------------------------------
  
 Input: Number of time/freq. points                                           30
 Input: Filter threshold for sparse tensor operations                    1.0E-09
 Apply Hedin shift                                                             F
  
 Number of auxiliary Gaussian basis functions for χ, ε, W                    184
 Cutoff radius for the truncated Coulomb operator in Σ^x:                  4.7 Å
 Cutoff radius for the truncated Coulomb operator in RI metric:            3.0 Å
 Regularization parameter of RI                                          1.0E-02
 Lattice sum size for V(k):                                                    3
  
 K-point mesh 1 for χ, ε, W                                           16  16  16
 K-point mesh 2 for χ, ε, W (for k-point extrapolation of W)          32  32  32
 Approximate the k-point extrapolation                                         F
 Radius of atomic orbitals                                                 9.8 Å
 Radius of RI functions                                                    7.2 Å
 Number of cells for 3c integrals                                            689
 Number of cell pairs for 3c integrals                                     51901
 
 Input: Available memory per MPI process                                 10.0 GB
 Used memory per MPI process before GW run                                0.7 GB
 Memory of three-center integrals                                         4.9 GB
 Group size for tensor operations                                              1
 Number of cells ΔR                                                         4905
 Min. abs. eigenvalue of RI metric matrix M(k)                           1.1E-07
 Max. abs. eigenvalue of RI metric matrix M(k)                           4.6E+02
 Max. condition number of M(k)                                           4.1E+11
 
 SCF direct band gap (eV)                                                   2.44
 Max. SCF eigval diff. (eV)                                                24.95
 E-Range for minimax grid                                                  10.24
 Number of Padé parameters for analytic continuation:                         16
 
 Computed χ^R(iτ) for time point            1 / 30,      Execution time   33.4 s
 Computed χ^R(iτ) for time point            2 / 30,      Execution time   32.9 s
 Computed χ^R(iτ) for time point            3 / 30,      Execution time   33.3 s
 Computed χ^R(iτ) for time point            4 / 30,      Execution time   33.4 s
 Computed χ^R(iτ) for time point            5 / 30,      Execution time   33.8 s
 Computed χ^R(iτ) for time point            6 / 30,      Execution time   33.8 s
 Computed χ^R(iτ) for time point            7 / 30,      Execution time   35.0 s
 Computed χ^R(iτ) for time point            8 / 30,      Execution time   35.9 s
 Computed χ^R(iτ) for time point            9 / 30,      Execution time   35.6 s
 Computed χ^R(iτ) for time point           10 / 30,      Execution time   35.0 s
 Computed χ^R(iτ) for time point           11 / 30,      Execution time   36.6 s
 Computed χ^R(iτ) for time point           12 / 30,      Execution time   34.6 s
 Computed χ^R(iτ) for time point           13 / 30,      Execution time   31.7 s
 Computed χ^R(iτ) for time point           14 / 30,      Execution time   35.3 s
 Computed χ^R(iτ) for time point           15 / 30,      Execution time   33.2 s
 Computed χ^R(iτ) for time point           16 / 30,      Execution time   30.8 s
 Computed χ^R(iτ) for time point           17 / 30,      Execution time   18.8 s
 Computed χ^R(iτ) for time point           18 / 30,      Execution time   18.6 s
 Computed χ^R(iτ) for time point           19 / 30,      Execution time   18.4 s
 Computed χ^R(iτ) for time point           20 / 30,      Execution time   18.6 s
 Computed χ^R(iτ) for time point           21 / 30,      Execution time   18.8 s
 Computed χ^R(iτ) for time point           22 / 30,      Execution time   17.4 s
 Computed χ^R(iτ) for time point           23 / 30,      Execution time   19.5 s
 Computed χ^R(iτ) for time point           24 / 30,      Execution time   17.8 s
 Computed χ^R(iτ) for time point           25 / 30,      Execution time   18.9 s
 Computed χ^R(iτ) for time point           26 / 30,      Execution time   17.3 s
 Computed χ^R(iτ) for time point           27 / 30,      Execution time   19.8 s
 Computed χ^R(iτ) for time point           28 / 30,      Execution time   18.1 s
 Computed χ^R(iτ) for time point           29 / 30,      Execution time   18.0 s
 Computed χ^R(iτ) for time point           30 / 30,      Execution time   17.9 s
 Computed V_PQ(k),                                       Execution time 1247.6 s
 
 Computed W_PQ(k,iω) for all k and τ,                    Execution time   49.2 s
 
 Computed Σ^x,                                           Execution time   37.2 s
 
 Computed Σ^c(iτ) for time point            1 / 30,      Execution time   45.5 s
 Computed Σ^c(iτ) for time point            2 / 30,      Execution time   45.7 s
 Computed Σ^c(iτ) for time point            3 / 30,      Execution time   44.5 s
 Computed Σ^c(iτ) for time point            4 / 30,      Execution time   43.9 s
 Computed Σ^c(iτ) for time point            5 / 30,      Execution time   43.3 s
 Computed Σ^c(iτ) for time point            6 / 30,      Execution time   42.7 s
 Computed Σ^c(iτ) for time point            7 / 30,      Execution time   42.7 s
 Computed Σ^c(iτ) for time point            8 / 30,      Execution time   42.0 s
 Computed Σ^c(iτ) for time point            9 / 30,      Execution time   41.4 s
 Computed Σ^c(iτ) for time point           10 / 30,      Execution time   40.3 s
 Computed Σ^c(iτ) for time point           11 / 30,      Execution time   39.8 s
 Computed Σ^c(iτ) for time point           12 / 30,      Execution time   39.8 s
 Computed Σ^c(iτ) for time point           13 / 30,      Execution time   37.9 s
 Computed Σ^c(iτ) for time point           14 / 30,      Execution time   37.4 s
 Computed Σ^c(iτ) for time point           15 / 30,      Execution time   36.0 s
 Computed Σ^c(iτ) for time point           16 / 30,      Execution time   32.6 s
 Computed Σ^c(iτ) for time point           17 / 30,      Execution time   20.9 s
 Computed Σ^c(iτ) for time point           18 / 30,      Execution time    8.7 s
 Computed Σ^c(iτ) for time point           19 / 30,      Execution time    8.7 s
 Computed Σ^c(iτ) for time point           20 / 30,      Execution time    9.8 s
 Computed Σ^c(iτ) for time point           21 / 30,      Execution time   10.6 s
 Computed Σ^c(iτ) for time point           22 / 30,      Execution time   10.5 s
 Computed Σ^c(iτ) for time point           23 / 30,      Execution time   10.6 s
 Computed Σ^c(iτ) for time point           24 / 30,      Execution time   10.5 s
 Computed Σ^c(iτ) for time point           25 / 30,      Execution time   10.6 s
 Computed Σ^c(iτ) for time point           26 / 30,      Execution time   10.6 s
 Computed Σ^c(iτ) for time point           27 / 30,      Execution time   10.6 s
 Computed Σ^c(iτ) for time point           28 / 30,      Execution time   10.5 s
 Computed Σ^c(iτ) for time point           29 / 30,      Execution time   10.4 s
 Computed Σ^c(iτ) for time point           30 / 30,      Execution time   10.6 s

 
 SCF valence band maximum (eV):                                            5.755
 SCF conduction band minimum (eV):                                         8.192
 SCF indirect band gap (eV):                                               2.437
 SCF direct band gap (eV):                                                 3.163
 
 G0W0 valence band maximum (eV):                                        -239.019
 G0W0 conduction band minimum (eV):                                     -524.427
 G0W0 indirect band gap (eV):                                           -285.408
 G0W0 direct band gap (eV):                                                5.310
 
 Hartree-Fock with SCF orbitals valence band maximum (eV):              -235.254
 Hartree-Fock with SCF orbitals conduction band minimum (eV)            -525.404
 Hartree-Fock with SCF orbitals indirect band gap (eV):                 -290.150
 Hartree-Fock with SCF orbitals direct band gap (eV):                     -0.691

 ENERGY| Total FORCE_EVAL ( QS ) energy [a.u.]:               -7.882275955022607

 -------------------------------------------------------------------------------
 -                                                                             -
 -                                DBCSR STATISTICS                             -
 -                                                                             -
 -------------------------------------------------------------------------------
 COUNTER                                    TOTAL       BLAS       SMM       ACC
 flops inhomo. stacks                           0       0.0%      0.0%      0.0%
 flops total                         0.000000E+00       0.0%      0.0%      0.0%
 flops max/rank                      0.000000E+00       0.0%      0.0%      0.0%
 matmuls inhomo. stacks                         0       0.0%      0.0%      0.0%
 matmuls total                                  0       0.0%      0.0%      0.0%
 number of processed stacks                     0       0.0%      0.0%      0.0%
 average stack size                                     0.0       0.0       0.0
 marketing flops                     0.000000E+00
 -------------------------------------------------------------------------------
 -                                                                             -
 -                      DBCSR MESSAGE PASSING PERFORMANCE                      -
 -                                                                             -
 -------------------------------------------------------------------------------
 ROUTINE             CALLS      AVE VOLUME [Bytes]
 MP_Bcast                1                     12.
 MP_Allreduce        20459                      8.
 MP_Alltoall        143724                 173362.
 -------------------------------------------------------------------------------

 -------------------------------------------------------------------------------
 -                                                                             -
 -                                DBM STATISTICS                               -
 -                                                                             -
 -------------------------------------------------------------------------------
    M  x    N  x    K                                          COUNT     PERCENT
    ?  x    ?  x    ?                                      294545148      49.84%
  ???  x    ?  x    ?                                      164528566      27.84%
   ??  x   ??  x   ??                                       85803969      14.52%
    ?  x    ?  x  ???                                       46132086       7.81%
 -------------------------------------------------------------------------------

 -------------------------------------------------------------------------------
 -                                                                             -
 -                                GRID STATISTICS                              -
 -                                                                             -
 -------------------------------------------------------------------------------
 LP    KERNEL             BACKEND                              COUNT     PERCENT
 2     integrate general  CPU                                  74392      53.12%
 2     collocate general  CPU                                  65640      46.87%
 0     collocate general  CPU                                      4       0.00%
 0     integrate general  CPU                                      2       0.00%
 -------------------------------------------------------------------------------

 MEMORY| Estimated peak process memory [MiB]                               32087

 -------------------------------------------------------------------------------
 -                                                                             -
 -                         MESSAGE PASSING PERFORMANCE                         -
 -                                                                             -
 -------------------------------------------------------------------------------

 ROUTINE             CALLS      AVE VOLUME [Bytes]
 MP_Group          5276410
 MP_Bcast          3341371                    120.
 MP_Allreduce     17879564                   4880.
 MP_Sync          25398288
 MP_Alltoall       8305198                     14.
 MP_SendRecv         15810                   2284.
 MP_ISendRecv        17595                   2199.
 MP_Wait             49953
 MP_comm_split     3317860
 MP_ISend          1161711                   7394.
 MP_IRecv           394873                  10301.
 -------------------------------------------------------------------------------


 -------------------------------------------------------------------------------
 -                                                                             -
 -                           R E F E R E N C E S                               -
 -                                                                             -
 -------------------------------------------------------------------------------
 
 CP2K version 2024.2 (Development Version), the CP2K developers group (2024).
 CP2K is freely available from https://www.cp2k.org/ .
 
 M. Graml, K. Zollner, D. Hernangómez-Pérez, P. E. Faria Junior, J. Wilhelm.
 J. Chem. Theory Comput. 20, 2202-2208 (2024).
 Low-scaling GW algorithm applied to twisted transition-metal dichalcogenide 
 heterobilayers.
 https://doi.org/10.1021/acs.jctc.3c01230

 T. D. Kuehne, M. Iannuzzi, M. Del Ben, V. V. Rybkin, P. Seewald, F. Stein, T. 
 Laino, R. Z. Khaliullin, O. Schuett, F. Schiffmann, D. Golze, J. Wilhelm, S. 
 Chulkov, M. H. Bani-Hashemian, V. Weber, U. Borstnik, M. Taillefumier, A. S. 
 Jakobovits, A. Lazzaro, H. Pabst, T. Mueller, R. Schade, M. Guidon, S. 
 Andermatt, N. Holmberg, G. K. Schenter, A. Hehn, A. Bussy, F. Belleflamme, G. 
 Tabacchi, A. Gloess, M. Lass, I. Bethune, C. J. Mundy, C. Plessl, M. Watkins, 
 J. VandeVondele, M. Krack, J. Hutter.
 J. Chem. Phys. 152, 194103 (2020).
 CP2K: An electronic structure and molecular dynamics software package - 
 Quickstep: Efficient and accurate electronic structure calculations.
 https://doi.org/10.1063/5.0007045

 A. Togo, I. Tanaka.
 arXiv, 1808.01590 (2018).
 Spglib : a software library for crystal symmetry search.

 O. Schuett, P. Messmer, J. Hutter, J. VandeVondele.
 Electronic Structure Calculations on Graphics Processing Units, 173-190 (2016).
 GPU-Accelerated Sparse Matrix-Matrix Multiplication for Linear Scaling Density 
 Functional Theory.
 https://doi.org/10.1002/9781118670712.ch8

 A. Heinecke, G. Henry, M. Hutchinson, H. Pabst.
 Proceedings of Intl. Supercomputing Conference, 981-991 (2016).
 LIBXSMM: Accelerating Small Matrix Multiplications by Runtime Code Generation.
 https://doi.org/10.1109/SC.2016.83

 J. Hutter, M. Iannuzzi, F. Schiffmann, J. VandeVondele.
 WIREs Comput Mol Sci. 4, 15-25 (2014).
 CP2K: atomistic simulations of condensed matter systems.
 https://doi.org/10.1002/wcms.1159

 U. Borstnik, J. VandeVondele, V. Weber, J. Hutter.
 Parallel Comput. 40, 47-58 (2014).
 Sparse matrix multiplication: The distributed block-compressed sparse row 
 library.
 https://doi.org/10.1016/j.parco.2014.03.012

 A. Marek, V. Blum, R. Johanni, V. Havu, B. Lang, T. Auckenthaler, A. Heinecke, 
 H. Bungartz, H. Lederer.
 J. Phys. Condens. Matter 26, 213201 (2014).
 The ELPA library: scalable parallel eigenvalue solutions for electronic 
 structure theory and computational science.
 https://doi.org/10.1088/0953-8984/26/21/213201

 J. VandeVondele, J. Hutter.
 J. Chem. Phys. 127, 114105 (2007).
 Gaussian basis sets for accurate calculations on molecular systems in gas and 
 condensed phases.
 https://doi.org/10.1063/1.2770708

 J. VandeVondele, M. Krack, F. Mohamed, M. Parrinello, T. Chassaing, J. Hutter.
 Comput. Phys. Commun. 167, 103-128 (2005).
 QUICKSTEP: Fast and accurate density functional calculations using a mixed 
 Gaussian and plane waves approach.
 https://doi.org/10.1016/j.cpc.2004.12.014

 M. Krack.
 Theor. Chem. Acc. 114, 145-152 (2005).
 Pseudopotentials for H to Kr optimized for gradient-corrected 
 exchange-correlation functionals.
 https://doi.org/10.1007/s00214-005-0655-y

 M. Frigo, S. G. Johnson.
 Proc. IEEE 93, 216-231 (2005).
 The design and implementation of FFTW3.
 https://doi.org/10.1109/JPROC.2004.840301

 C. Hartwigsen, S. Goedecker, J. Hutter.
 Phys. Rev. B 58, 3641-3662 (1998).
 Relativistic separable dual-space Gaussian pseudopotentials from H to Rn.
 https://doi.org/10.1103/PhysRevB.58.3641

 G. Lippert, J. Hutter, M. Parrinello.
 Mol. Phys. 92, 477-487 (1997).
 A hybrid Gaussian and plane wave density functional scheme.
 https://doi.org/10.1080/002689797170220

 S. Goedecker, M. Teter, J. Hutter.
 Phys. Rev. B 54, 1703-1710 (1996).
 Separable dual-space Gaussian pseudopotentials.
 https://doi.org/10.1103/PhysRevB.54.1703


 -------------------------------------------------------------------------------
 -                                                                             -
 -                                T I M I N G                                  -
 -                                                                             -
 -------------------------------------------------------------------------------
 SUBROUTINE                       CALLS  ASD         SELF TIME        TOTAL TIME
                                MAXIMUM       AVERAGE  MAXIMUM  AVERAGE  MAXIMUM
 CP2K                                 1  1.0    0.083    0.206 3650.422 3650.436
 qs_energies                          1  2.0    0.005    0.008 3629.586 3646.792
 qs_energies_properties               1  3.0    0.000    0.001 3615.784 3632.990
 post_scf_bandstructure               1  4.0    0.002    0.003 3615.784 3632.990
 gw                                   1  5.0    0.002    0.003 3612.231 3612.424
 gw_calc_small_cell_full_kp           1  6.0    0.001    0.003 3571.244 3571.489
 mp_sync                        ******* 10.7 1119.177 1423.699 1119.177 1423.699
 compute_chi                          1  7.0    0.112    0.130 1395.039 1395.947
 compute_W_real_space                 1  7.0    5.110    5.303 1297.033 1297.887
 compute_Minv_and_Vsqrt               1  8.0    0.056    0.061 1247.864 1248.727
 build_2c_coulomb_matrix_kp_sma       2  9.0    6.819    7.027 1246.659 1247.511
 dbt_total                      *******  9.7   19.392   22.748  572.417 1038.854
 dbt_contract                   5205086 10.6   16.867   23.707  412.730  840.283
 compute_Sigma_c                      1  7.0    0.167    0.934  822.306  823.337
 dbt_tas_multiply               1132530 13.0    0.812    1.615  349.281  726.408
 dbt_tas_total                  1132530 14.0   39.666   80.757  348.692  725.216
 add_V_L                         294912 10.0   19.851  646.742   19.851  646.742
 dbt_create_3c_R1_R2                 62  8.0   29.503   30.257  585.750  623.290
 dbt_create_template            *******  9.0  565.603  603.167  565.603  603.167
 build_2c_coulomb_matrix_kp_sma  294912 10.0  486.048  499.327  486.048  499.327
 contract_to_Sigma                  366  8.0   76.996   88.758  336.226  494.816
 contract_M_occ_vir_to_chi          180  8.0  172.293  189.308  279.503  331.030
 dbt_tas_estimate_result_nze     566265 13.5   12.421   25.747  151.325  307.911
 contract_W                         186  8.0    2.083    2.218  161.392  290.912
 contract_to_Sigma_3c_x_G       1447713  9.0    2.218    2.373  140.222  248.908
 G_times_3c                       88020  8.0    1.411    1.927  103.369  224.888
 destroy_t_2d                        62  8.0   28.587   31.470  194.319  217.179
 dbt_destroy                    *******  9.2  176.350  200.721  176.724  201.133
 reshape_mm_small               1132530 15.0   37.259   74.727   97.289  200.715
 dbt_copy                       5163064 10.8   16.470   19.375  138.431  177.275
 contract_to_Sigma_contract       89487  9.0    2.965    3.308  106.705  164.632
 mp_alltoall_i22                  23274 10.4  108.175  156.958  108.175  156.958
 dbcsr_complete_redistribute      13677  9.7    0.425    0.545  105.511  153.434
 fm_to_local_tensor                4104  9.0    0.041    0.044  101.139  149.949
 copy_fm_to_dbcsr                  6460  9.2    0.018    0.019   95.659  143.582
 G_occ_vir                          121  8.0    0.013    0.095  109.120  140.318
 reshape_mm_compatible          1132530 15.0   15.448   31.151   62.037  125.939
 dbt_tas_create_split           3317856 16.1    2.296    4.612   58.473  118.121
 dbt_tas_create_split_rows_or_c 3317856 17.1    6.737   13.760   56.177  113.508
 parallel_gemm_cfm                20092  9.0    0.018    0.024   21.402  112.128
 parallel_gemm_cfm_cosma          20092 10.0   21.384  112.109   21.384  112.109
 get_t_3c_int                   2771109  9.6    4.647    5.647   75.481  103.564
 mp_sum_dm                       294925 10.0   91.603   98.516   91.603   98.516
 dbt_tas_distribution_new       2608654 15.9   23.964   49.043   44.644   91.007
 dbt_permute_index              4547768 11.9   58.637   81.044   64.401   88.865
 dbt_tas_replicate              1132530 15.0   16.063   34.106   40.160   84.537
 dbt_tas_reshape                1300218 15.5    4.990   10.205   34.870   77.868
 dbt_reshape                    2932817 11.7   31.268   47.803   54.179   77.746
 change_split                   1531107 15.5    5.238   10.427   37.219   74.810
 mp_cart_create                 5283663 16.8   24.093   48.051   28.897   57.793
 compute_Sigma_x                      1  7.0    0.002    0.034   50.679   50.997
 dbt_tas_dbm                    1132530 15.0    0.729    1.489   20.318   44.857
 dbt_tas_create_new             4219496 15.3   20.401   41.435   20.401   41.435
 dbm_multiply                   1132530 17.0   18.515   41.216   18.515   41.216
 create_and_init_bs_env_for_gw        1  6.0    0.051    0.189   40.985   41.111
 dbt_align_index                1698795 11.5    1.768    3.586   18.907   38.447
 copy_dbcsr_to_fm                  7217  8.4    0.065    0.067   34.857   36.020
 dbt_tas_reserve_blocks_index   7837621 15.0   10.598   17.574   21.184   33.514
 dbt_remap                        83844 11.0    4.196    9.025   15.080   33.247
 is_cell_in_index_to_cell       *******  9.9   29.765   33.165   29.765   33.165
 add_R                          *******  9.3    9.323   10.329   28.337   31.443
 compute_3c_integrals                 1  7.0    0.477    0.503   31.426   31.431
 mp_comm_dup                    2751595 18.6   12.559   25.477   15.145   30.667
 dbcsr_desymmetrize_deep           9597  8.9    0.152    0.165   28.966   30.171
 power                             4567  8.0   29.382   29.711   29.382   29.711
 mp_comm_split_direct           3317860 18.1   10.811   21.799   12.820   25.897
 dbt_tas_reshape_buffer_obtain  1300218 16.5    5.523   12.741   10.851   24.369
 convert_to_new_pgrid           3397590 15.0    6.833   13.855   11.835   24.019
 local_dbt_to_global_fm              91  8.0    0.006    0.006   23.403   23.404
 build_3c_integrals                   1  8.0   15.075   16.601   21.348   22.774
 dbm_reserve_blocks             8970151 16.0   13.199   21.976   13.199   21.976
 mp_comm_free                   ******* 15.8   10.756   21.456   10.756   21.456
 dbt_reserve_blocks_index_array 3745257 12.8    4.282    4.891   17.560   21.435
 dbt_tas_reshape_buffer_fill    1300218 16.5    9.296   21.289    9.296   21.289
 mp_comm_size                   ******* 15.5   10.978   19.621   10.978   19.621
 dbt_tas_mm_3T                   475116 16.1    0.243    0.524    8.417   19.447
 dbt_reserve_blocks_index       3987066 13.5    5.558    6.416   15.890   19.197
 dos_pdos_ldos                        1  5.0    0.001    0.006    1.938   19.103
 mp_sum_i                        968952 16.0   17.956   18.363   17.956   18.363
 mp_comm_rank                   ******* 15.5   10.195   18.010   10.195   18.010
 dbt_tas_communicate_buffer     2432748 17.3    7.422   17.836    7.422   17.836
 write_dos_pdos                       2  6.0    0.067   17.273    0.067   17.273
 restraint_control                    1  2.0    0.000    0.001   17.204   17.272
 dbt_tas_reserve_blocks_templat 2560367 13.9    4.051    6.106   10.062   16.300
 mp_cart_get                    ******* 15.5    8.083   15.028    8.083   15.028
 dbt_tas_mm_2                    349766 16.2    0.307    0.518    7.122   14.396
 reshape_mm_template             167688 15.5    3.290    7.098    6.455   14.006
 dbt_tas_merge                   349766 15.2    3.556    8.063    5.744   13.330
 dbt_tas_copy                   1427837 12.6    3.199    4.739    9.507   13.262
 dbt_distribution_new_expert     175906 12.4    1.501    3.111    6.097   12.523
 dbt_tas_reshape_communicate_bu 1300218 16.5    1.433    3.118    5.210   12.182
 dbt_tas_mp_comm                 650109 13.2    0.957    1.968    5.901   12.135
 mp_alltoall_d11v                 69822 10.8   11.537   11.570   11.537   11.570
 scf_env_do_scf                       1  3.0    0.003    0.004   11.495   11.495
 scf_env_do_scf_inner_loop           14  4.0    0.005    0.005   11.492   11.494
 mp_alltoall_i11v                 50628 10.6   11.285   11.290   11.285   11.290
 dbm_copy                       2265060 16.0    5.002   10.164    5.002   10.164
 dbt_copy_nocomm                 850110 11.0    2.618    3.293    7.982    9.363
 dbt_tas_replicate_communicate_  782764 15.9    0.964    2.083    4.152    9.282
 qs_scf_new_mos_kp                   14  5.0    0.000    0.000    9.187    9.207
 do_general_diag_kp                  14  6.0    0.005    0.006    9.187    9.207
 dbt_tas_mm_1N                   307648 15.5    0.138    0.300    3.803    8.963
 fm_to_local_array                  934  8.1    1.957    2.357    8.265    8.367
 dbt_create_new                   87953 11.9    0.921    1.906    4.030    8.279
 fm_MWM_R_t_to_local_tensor_W_R      30  8.0    0.001    0.001    8.031    8.057
 mp_max_i                       ******* 11.6    5.662    6.930    5.662    6.930
 get_V_tr_R                          34  9.0    0.010    0.026    5.998    6.745
 global_matrix_to_local_matrix     4104 10.0    0.317    0.736    5.827    6.672
 dbt_communicate_buffer         2932817 12.7    3.716    6.519    3.716    6.519
 compute_QP_energies                  1  7.0    0.003    0.003    6.122    6.405
 dbm_filter                     2124705 12.8    3.358    6.392    3.358    6.392
 trafo_to_k_and_nn                 5978  8.0    0.021    0.036    6.103    6.391
 mp_sum_dv                         6383  8.9    4.738    6.337    4.738    6.337
 dbt_reserve_blocks_template     850110 12.0    1.335    1.539    5.363    6.131
 mp_alltoall_i                  8304946 13.6    4.357    5.985    4.357    5.985
 dbm_add                        1132530 15.0    2.173    5.950    2.173    5.950
 mp_sum_dm3                        1009  9.0    5.571    5.918    5.571    5.918
 dbt_tas_reshape_get_coord      1300218 16.5    2.524    5.716    2.524    5.716
 mp_waitall_1                     45039 12.4    4.102    5.017    4.102    5.017
 send_data                         4104 11.0    0.008    0.009    4.121    5.013
 communicate_buffer                4104 12.0    0.029    0.461    4.114    5.006
 get_Minv_Vtr_Minv_R                  1  8.0    0.002    0.004    4.083    4.826
 hybrid_alltoall_any               9597  9.9    0.050    0.052    4.700    4.717
 mp_sum_l                       6012844 15.2    2.229    4.639    2.229    4.639
 mult_W_with_Minv                    30  8.0    0.026    0.058    4.606    4.616
 local_dbt_to_global_mat           2457  9.0    0.009    0.009    2.610    4.242
 dbm_scale                      5638696 12.1    3.049    3.782    3.049    3.782
 alloc_block_3c                       1  9.0    0.943    0.990    3.501    3.650
 compute_V_xc                         1  7.0    0.002    0.002    3.505    3.506
 local_matrix_to_global_matrix     2457 10.0    0.007    0.007    1.724    3.349
 bs_env_release                       1  2.0    0.422    0.670    2.669    3.062
 transfer_rs2pw                      62  8.0    0.000    0.000    2.812    2.838
 mp_sendrecv_dv                   15810 10.0    2.790    2.817    2.790    2.817
 transfer_rs2pw_250                  17  8.8    0.012    0.015    2.782    2.809
 qs_rho_update_rho_low               15  5.0    0.000    0.000    2.746    2.751
 calculate_rho_elec                  15  6.0    0.000    0.001    2.746    2.751
 density_rs2pw                       15  7.0    0.000    0.000    2.723    2.746
 mp_bcast_i                     3318103 18.1    1.301    2.663    1.301    2.663
 get_data                          4104 11.0    0.570    2.617    0.586    2.633
 dbt_tas_reshape_alltoall       1300218 16.5    0.667    1.364    1.239    2.559
 dbt_pgrid_create_expert         175909 13.4    0.294    0.600    1.244    2.493
 qs_ks_build_kohn_sham_matrix        17  7.2    0.013    0.016    0.206    2.263
 dbt_tas_merge_communicate_buff  349766 16.2    0.298    0.675    0.756    2.249
 qs_ks_update_qs_env                 14  5.0    0.000    0.000    0.490    2.187
 sum_up_and_integrate                17  8.2    0.002    0.003    0.127    2.186
 integrate_v_rspace                  17  9.2    0.000    0.003    0.125    2.184
 rsmat_to_kp                        294  7.3    0.003    0.003    2.080    2.085
 grid_integrate_task_list            17 10.2    0.024    2.083    0.024    2.083
 init_scf_run                         1  3.0    0.001    0.002    2.028    2.029
 scf_env_initial_rho_setup            1  4.0    0.002    0.003    2.027    2.028
 dbt_buffer_get_index           2432748 16.8    0.918    2.024    0.918    2.024
 mp_dims_create                 2608651 14.5    0.918    1.908    0.918    1.908
 calculate_first_density_matrix       1  5.0    0.000    0.001    0.816    1.891
 read_kpoints_restart                 1  6.0    0.006    1.103    0.794    1.890
 mp_cart_rank                   3124224 15.9    0.851    1.868    0.851    1.868
 rebuild_ks_matrix                   14  6.0    0.000    0.000    0.168    1.865
 setup_cells_3c                       1  7.0    0.246    0.251    1.845    1.846
 build_2c_integrals                  34 10.0    0.017    1.126    0.398    1.825
 trafo_rs_to_ikp                   2366  8.0    0.088    0.100    1.768    1.819
 add_rs_to_ikp                   225288  9.7    1.749    1.796    1.749    1.796
 trafo_V_xc_R_to_kp                   1  7.0    0.001    0.001    1.579    1.701
 set_blocks                        2457 11.0    0.946    1.486    1.057    1.678
 create_and_init_bs_env               1  5.0    0.001    0.002    1.614    1.615
 add_to_DOS_PDOS                    196  6.0    0.375    1.609    0.375    1.609
 compute_cfm_mo_coeff_kp_and_ei       1  6.0    0.000    0.000    1.603    1.603
 dbt_nd_mp_comm                   87948 11.9    0.091    0.199    0.791    1.583
 grid_collocate_task_list            15  7.0    0.022    1.572    0.022    1.572
 compute_proj_mo_on_kind             98  6.0    0.001    0.006    1.495    1.569
 abc_contract_xsmm               920994  9.0    1.409    1.498    1.409    1.498
 dbt_tas_replicate_alltoall      782764 15.9    0.382    0.827    0.687    1.491
 add_ikp_to_rs                   268245  9.8    1.455    1.484    1.455    1.484
 add_ikp_to_all_rs                 2191  8.0    0.034    0.036    1.393    1.421
 build_3c_integral_block          36792  8.0    0.985    1.212    1.363    1.403
 mp_cart_sub                      14513 10.4    1.309    1.312    1.309    1.312
 setup_parallelization_Delta_R        1  7.0    0.000    0.000    1.247    1.252
 analyt_conti_and_print              98  8.0    0.005    1.240    0.013    1.248
 compute_n_tensor_ops_Delta_R         1  8.0    0.099    0.186    1.243    1.243
 kpoint_density_transform            14  7.0    0.006    0.006    1.191    1.197
 heuristic_RI_regularization          1  7.0    0.000    0.000    1.091    1.092
 dbt_create_matrix                 4104 10.0    0.047    0.049    0.901    0.931
 mp_sum_iv                           24  6.1    0.595    0.906    0.595    0.906
 comm_data                         2457 11.0    0.011    0.145    0.085    0.805
 dbt_distribution_destroy        175906 12.4    0.282    0.597    0.361    0.764
 dbcsr_finalize                   62839 10.2    0.123    0.153    0.512    0.709
 dbt_tas_merge_alltoall          349766 16.2    0.216    0.361    0.403    0.689
 fill_buffer                       2457 11.0    0.342    0.629    0.351    0.639
 mp_bcast_dm                       5842  8.0    0.626    0.635    0.626    0.635
 ab_contract                     620568 11.0    0.009    0.554    0.009    0.554
 rskp_transform                    1190  7.3    0.007    0.485    0.007    0.485
 mp_waitall_2                      4914 12.0    0.063    0.478    0.063    0.478
 build_3c_integrals_put_dbcsr     61934  9.0    0.439    0.468    0.439    0.468
 send_sizes_1                      4104 11.0    0.005    0.006    0.384    0.408
 mp_isend_dv                     579805 12.5    0.011    0.378    0.011    0.378
 dbcsr_filter_anytype             32014  9.7    0.055    0.056    0.244    0.378
 dbcsr_data_release              348960 11.3    0.288    0.376    0.288    0.376
 -------------------------------------------------------------------------------

 The number of warnings for this run is : 0
 
 -------------------------------------------------------------------------------
  **** **** ******  **  PROGRAM ENDED AT                 2024-09-16 15:33:18.259
 ***** ** ***  *** **   PROGRAM RAN ON                                 n2lcn0124
 **    ****   ******    PROGRAM RAN BY                                  metdyn02
 ***** **    ** ** **   PROGRAM PROCESS ID                                383707
  **** **  *******  **  PROGRAM STOPPED IN /scratch/hpc-prf-metdyn/metdyn02_Remi
                                           /02_Si
