 DBCSR| CPU Multiplication driver                                           XSMM (U)
 DBCSR| Multrec recursion limit                                              512 (U)
 DBCSR| Multiplication stack size                                           1000 (D)
 DBCSR| Maximum elements for images                                    UNLIMITED (U)
 DBCSR| Multiplicative factor virtual images                                   1 (U)
 DBCSR| Use multiplication densification                                       T (D)
 DBCSR| Multiplication size stacks                                             3 (U)
 DBCSR| Use memory pool for CPU allocation                                     F (U)
 DBCSR| Number of 3D layers                                               SINGLE (U)
 DBCSR| Use MPI memory allocation                                              F (U)
 DBCSR| Use RMA algorithm                                                      F (U)
 DBCSR| Use Communication thread                                               T (U)
 DBCSR| Communication thread load                                             60 (D)
 DBCSR| MPI: My process id                                                     0
 DBCSR| MPI: Number of processes                                             128
 DBCSR| OMP: Current number of threads                                         8
 DBCSR| OMP: Max number of threads                                             8
 DBCSR| Split modifier for TAS multiplication algorithm                  1.0E+00 (U)


  **** **** ******  **  PROGRAM STARTED AT               2024-08-16 13:05:35.243
 ***** ** ***  *** **   PROGRAM STARTED ON                              n2cn0172
 **    ****   ******    PROGRAM STARTED BY                              metdyn02
 ***** **    ** ** **   PROGRAM PROCESS ID                               3596821
  **** **  *******  **  PROGRAM STARTED IN /scratch/hpc-prf-metdyn/metdyn02_Remi
                                           /01_H2_GW_test/01_1x1x1

 CP2K| version string:                 CP2K version 2024.2 (Development Version)
 CP2K| source code revision number:                                  git:7adf92c
 CP2K| cp2kflags: omp libint fftw3 libxc libgrpp elpa parallel scalapack mpi_f08
 CP2K|             cosma deepmd xsmm plumed2 has_ieee_exceptions spglib sirius c
 CP2K|            check_diag libvori libbqb libvdwxc hdf5
 CP2K| is freely available from                            https://www.cp2k.org/
 CP2K| Program compiled at                         Mon Aug 12 11:44:35 CEST 2024
 CP2K| Program compiled on                                              n2login2
 CP2K| Program compiled for                                                local
 CP2K| Data directory path    /opt/software/pc2/EB-SW/software/CP2K/2024.1-foss-
 CP2K| Input file name                                                    GW.inp

 GLOBAL| Force Environment number                                              1
 GLOBAL| Basis set file name                                      BASIS_RI_cc-TZ
 GLOBAL| Potential file name            /pc2/groups/hpc-prf-metdyn/metdyn02_Remi
 GLOBAL| MM Potential file name                                     MM_POTENTIAL
 GLOBAL| Coordinate file name                                      __STD_INPUT__
 GLOBAL| Method name                                                        CP2K
 GLOBAL| Project name                                                         H2
 GLOBAL| Run type                                                         ENERGY
 GLOBAL| FFT library                                                       FFTW3
 GLOBAL| Diagonalization library                                            ELPA
 GLOBAL| DGEMM library                                                      BLAS
 GLOBAL| Minimum number of eigenvectors for ELPA usage                        16
 GLOBAL| Orthonormality check for eigenvectors enabled                 5.000E-14
 GLOBAL| Matrix multiplication library                                     COSMA
 GLOBAL| All-to-all communication in single precision                          F
 GLOBAL| FFTs using library dependent lengths                                  F
 GLOBAL| Grid backend                                                       AUTO
 GLOBAL| Global print level                                               MEDIUM
 GLOBAL| MPI I/O enabled                                                       T
 GLOBAL| Total number of message passing processes                           128
 GLOBAL| Number of threads for this process                                    8
 GLOBAL| This output is from process                                           0
 GLOBAL| Stack size for threads created by OpenMP (OMP_STACKSIZE)        default
 GLOBAL| CPU model name                          AMD EPYC 7763 64-Core Processor
 GLOBAL| CPUID                                                              1002

 MEMORY| system memory details [Kb]
 MEMORY|                        rank 0           min           max       average
 MEMORY| MemTotal            263899260     263899260     263899264     263899261
 MEMORY| MemFree             244827240     237740520     251970832     247781001
 MEMORY| Buffers                224268         28632        275544        163466
 MEMORY| Cached                7727928       4478960      13400792       6651731
 MEMORY| Slab                  4526704       1508024       7045104       3182641
 MEMORY| SReclaimable           487980        246408       3093084        681847
 MEMORY| MemLikelyFree       253267416     251977040     257061904     255278047


 *** Fundamental physical constants (SI units) ***

 *** Literature: B. J. Mohr and B. N. Taylor,
 ***             CODATA recommended values of the fundamental physical
 ***             constants: 2006, Web Version 5.1
 ***             http://physics.nist.gov/constants

 Speed of light in vacuum [m/s]                             2.99792458000000E+08
 Magnetic constant or permeability of vacuum [N/A**2]       1.25663706143592E-06
 Electric constant or permittivity of vacuum [F/m]          8.85418781762039E-12
 Planck constant (h) [J*s]                                  6.62606896000000E-34
 Planck constant (h-bar) [J*s]                              1.05457162825177E-34
 Elementary charge [C]                                      1.60217648700000E-19
 Electron mass [kg]                                         9.10938215000000E-31
 Electron g factor [ ]                                     -2.00231930436220E+00
 Proton mass [kg]                                           1.67262163700000E-27
 Fine-structure constant                                    7.29735253760000E-03
 Rydberg constant [1/m]                                     1.09737315685270E+07
 Avogadro constant [1/mol]                                  6.02214179000000E+23
 Boltzmann constant [J/K]                                   1.38065040000000E-23
 Atomic mass unit [kg]                                      1.66053878200000E-27
 Bohr radius [m]                                            5.29177208590000E-11

 *** Conversion factors ***

 [u] -> [a.u.]                                              1.82288848426455E+03
 [Angstrom] -> [Bohr] = [a.u.]                              1.88972613288564E+00
 [a.u.] = [Bohr] -> [Angstrom]                              5.29177208590000E-01
 [a.u.] -> [s]                                              2.41888432650478E-17
 [a.u.] -> [fs]                                             2.41888432650478E-02
 [a.u.] -> [J]                                              4.35974393937059E-18
 [a.u.] -> [N]                                              8.23872205491840E-08
 [a.u.] -> [K]                                              3.15774647902944E+05
 [a.u.] -> [kJ/mol]                                         2.62549961709828E+03
 [a.u.] -> [kcal/mol]                                       6.27509468713739E+02
 [a.u.] -> [Pa]                                             2.94210107994716E+13
 [a.u.] -> [bar]                                            2.94210107994716E+08
 [a.u.] -> [atm]                                            2.90362800883016E+08
 [a.u.] -> [eV]                                             2.72113838565563E+01
 [a.u.] -> [Hz]                                             6.57968392072181E+15
 [a.u.] -> [1/cm] (wave numbers)                            2.19474631370540E+05
 [a.u./Bohr**2] -> [1/cm]                                   5.14048714338585E+03
 

 CELL_TOP| Volume [angstrom^3]:                                        83.775487
 CELL_TOP| Vector a [angstrom     3.900     0.000     0.000   |a| =     3.900000
 CELL_TOP| Vector b [angstrom    -1.950     3.377     0.000   |b| =     3.900000
 CELL_TOP| Vector c [angstrom     0.000     0.000     6.360   |c| =     6.360000
 CELL_TOP| Angle (b,c), alpha [degree]:                                90.000000
 CELL_TOP| Angle (a,c), beta  [degree]:                                90.000000
 CELL_TOP| Angle (a,b), gamma [degree]:                               120.000000
 CELL_TOP| Numerically orthorhombic:                                          NO
 CELL_TOP| Periodicity                                                       XYZ

 GENERATE|  Preliminary Number of Bonds generated:                             0
 GENERATE|  Achieved consistency in connectivity generation.

 CELL| Volume [angstrom^3]:                                            83.775487
 CELL| Vector a [angstrom]:       3.900     0.000     0.000   |a| =     3.900000
 CELL| Vector b [angstrom]:      -1.950     3.377     0.000   |b| =     3.900000
 CELL| Vector c [angstrom]:       0.000     0.000     6.360   |c| =     6.360000
 CELL| Angle (b,c), alpha [degree]:                                    90.000000
 CELL| Angle (a,c), beta  [degree]:                                    90.000000
 CELL| Angle (a,b), gamma [degree]:                                   120.000000
 CELL| Numerically orthorhombic:                                              NO
 CELL| Periodicity                                                           XYZ

 CELL_REF| Volume [angstrom^3]:                                        83.775487
 CELL_REF| Vector a [angstrom     3.900     0.000     0.000   |a| =     3.900000
 CELL_REF| Vector b [angstrom    -1.950     3.377     0.000   |b| =     3.900000
 CELL_REF| Vector c [angstrom     0.000     0.000     6.360   |c| =     6.360000
 CELL_REF| Angle (b,c), alpha [degree]:                                90.000000
 CELL_REF| Angle (a,c), beta  [degree]:                                90.000000
 CELL_REF| Angle (a,b), gamma [degree]:                               120.000000
 CELL_REF| Numerically orthorhombic:                                          NO
 CELL_REF| Periodicity                                                       XYZ

 *******************************************************************************
                                    Kpoints
 *******************************************************************************
 BRILLOUIN| K-point scheme                                        Monkhorst-Pack
 BRILLOUIN| K-Point grid                                             8    8    8
 BRILLOUIN| Accuracy in Symmetry determination                      0.100000E-05
 BRILLOUIN| K-Point point group symmetrization                               OFF
 BRILLOUIN| Wavefunction type                                            COMPLEX
 BRILLOUIN| List of Kpoints [2 Pi/Bohr]                                      256
 BRILLOUIN| Number           Weight            X              Y              Z
 BRILLOUIN|     1           0.00391       -0.43750       -0.43750       -0.43750
 BRILLOUIN|     2           0.00391       -0.43750       -0.43750       -0.31250
 BRILLOUIN|     3           0.00391       -0.43750       -0.43750       -0.18750
 BRILLOUIN|     4           0.00391       -0.43750       -0.43750       -0.06250
 BRILLOUIN|     5           0.00391       -0.43750       -0.43750        0.06250
 BRILLOUIN|     6           0.00391       -0.43750       -0.43750        0.18750
 BRILLOUIN|     7           0.00391       -0.43750       -0.43750        0.31250
 BRILLOUIN|     8           0.00391       -0.43750       -0.43750        0.43750
 BRILLOUIN|     9           0.00391       -0.43750       -0.31250       -0.43750
 BRILLOUIN|    10           0.00391       -0.43750       -0.31250       -0.31250
 BRILLOUIN|    11           0.00391       -0.43750       -0.31250       -0.18750
 BRILLOUIN|    12           0.00391       -0.43750       -0.31250       -0.06250
 BRILLOUIN|    13           0.00391       -0.43750       -0.31250        0.06250
 BRILLOUIN|    14           0.00391       -0.43750       -0.31250        0.18750
 BRILLOUIN|    15           0.00391       -0.43750       -0.31250        0.31250
 BRILLOUIN|    16           0.00391       -0.43750       -0.31250        0.43750
 BRILLOUIN|    17           0.00391       -0.43750       -0.18750       -0.43750
 BRILLOUIN|    18           0.00391       -0.43750       -0.18750       -0.31250
 BRILLOUIN|    19           0.00391       -0.43750       -0.18750       -0.18750
 BRILLOUIN|    20           0.00391       -0.43750       -0.18750       -0.06250
 BRILLOUIN|    21           0.00391       -0.43750       -0.18750        0.06250
 BRILLOUIN|    22           0.00391       -0.43750       -0.18750        0.18750
 BRILLOUIN|    23           0.00391       -0.43750       -0.18750        0.31250
 BRILLOUIN|    24           0.00391       -0.43750       -0.18750        0.43750
 BRILLOUIN|    25           0.00391       -0.43750       -0.06250       -0.43750
 BRILLOUIN|    26           0.00391       -0.43750       -0.06250       -0.31250
 BRILLOUIN|    27           0.00391       -0.43750       -0.06250       -0.18750
 BRILLOUIN|    28           0.00391       -0.43750       -0.06250       -0.06250
 BRILLOUIN|    29           0.00391       -0.43750       -0.06250        0.06250
 BRILLOUIN|    30           0.00391       -0.43750       -0.06250        0.18750
 BRILLOUIN|    31           0.00391       -0.43750       -0.06250        0.31250
 BRILLOUIN|    32           0.00391       -0.43750       -0.06250        0.43750
 BRILLOUIN|    33           0.00391       -0.43750        0.06250       -0.43750
 BRILLOUIN|    34           0.00391       -0.43750        0.06250       -0.31250
 BRILLOUIN|    35           0.00391       -0.43750        0.06250       -0.18750
 BRILLOUIN|    36           0.00391       -0.43750        0.06250       -0.06250
 BRILLOUIN|    37           0.00391       -0.43750        0.06250        0.06250
 BRILLOUIN|    38           0.00391       -0.43750        0.06250        0.18750
 BRILLOUIN|    39           0.00391       -0.43750        0.06250        0.31250
 BRILLOUIN|    40           0.00391       -0.43750        0.06250        0.43750
 BRILLOUIN|    41           0.00391       -0.43750        0.18750       -0.43750
 BRILLOUIN|    42           0.00391       -0.43750        0.18750       -0.31250
 BRILLOUIN|    43           0.00391       -0.43750        0.18750       -0.18750
 BRILLOUIN|    44           0.00391       -0.43750        0.18750       -0.06250
 BRILLOUIN|    45           0.00391       -0.43750        0.18750        0.06250
 BRILLOUIN|    46           0.00391       -0.43750        0.18750        0.18750
 BRILLOUIN|    47           0.00391       -0.43750        0.18750        0.31250
 BRILLOUIN|    48           0.00391       -0.43750        0.18750        0.43750
 BRILLOUIN|    49           0.00391       -0.43750        0.31250       -0.43750
 BRILLOUIN|    50           0.00391       -0.43750        0.31250       -0.31250
 BRILLOUIN|    51           0.00391       -0.43750        0.31250       -0.18750
 BRILLOUIN|    52           0.00391       -0.43750        0.31250       -0.06250
 BRILLOUIN|    53           0.00391       -0.43750        0.31250        0.06250
 BRILLOUIN|    54           0.00391       -0.43750        0.31250        0.18750
 BRILLOUIN|    55           0.00391       -0.43750        0.31250        0.31250
 BRILLOUIN|    56           0.00391       -0.43750        0.31250        0.43750
 BRILLOUIN|    57           0.00391       -0.43750        0.43750       -0.43750
 BRILLOUIN|    58           0.00391       -0.43750        0.43750       -0.31250
 BRILLOUIN|    59           0.00391       -0.43750        0.43750       -0.18750
 BRILLOUIN|    60           0.00391       -0.43750        0.43750       -0.06250
 BRILLOUIN|    61           0.00391       -0.43750        0.43750        0.06250
 BRILLOUIN|    62           0.00391       -0.43750        0.43750        0.18750
 BRILLOUIN|    63           0.00391       -0.43750        0.43750        0.31250
 BRILLOUIN|    64           0.00391       -0.43750        0.43750        0.43750
 BRILLOUIN|    65           0.00391       -0.31250       -0.43750       -0.43750
 BRILLOUIN|    66           0.00391       -0.31250       -0.43750       -0.31250
 BRILLOUIN|    67           0.00391       -0.31250       -0.43750       -0.18750
 BRILLOUIN|    68           0.00391       -0.31250       -0.43750       -0.06250
 BRILLOUIN|    69           0.00391       -0.31250       -0.43750        0.06250
 BRILLOUIN|    70           0.00391       -0.31250       -0.43750        0.18750
 BRILLOUIN|    71           0.00391       -0.31250       -0.43750        0.31250
 BRILLOUIN|    72           0.00391       -0.31250       -0.43750        0.43750
 BRILLOUIN|    73           0.00391       -0.31250       -0.31250       -0.43750
 BRILLOUIN|    74           0.00391       -0.31250       -0.31250       -0.31250
 BRILLOUIN|    75           0.00391       -0.31250       -0.31250       -0.18750
 BRILLOUIN|    76           0.00391       -0.31250       -0.31250       -0.06250
 BRILLOUIN|    77           0.00391       -0.31250       -0.31250        0.06250
 BRILLOUIN|    78           0.00391       -0.31250       -0.31250        0.18750
 BRILLOUIN|    79           0.00391       -0.31250       -0.31250        0.31250
 BRILLOUIN|    80           0.00391       -0.31250       -0.31250        0.43750
 BRILLOUIN|    81           0.00391       -0.31250       -0.18750       -0.43750
 BRILLOUIN|    82           0.00391       -0.31250       -0.18750       -0.31250
 BRILLOUIN|    83           0.00391       -0.31250       -0.18750       -0.18750
 BRILLOUIN|    84           0.00391       -0.31250       -0.18750       -0.06250
 BRILLOUIN|    85           0.00391       -0.31250       -0.18750        0.06250
 BRILLOUIN|    86           0.00391       -0.31250       -0.18750        0.18750
 BRILLOUIN|    87           0.00391       -0.31250       -0.18750        0.31250
 BRILLOUIN|    88           0.00391       -0.31250       -0.18750        0.43750
 BRILLOUIN|    89           0.00391       -0.31250       -0.06250       -0.43750
 BRILLOUIN|    90           0.00391       -0.31250       -0.06250       -0.31250
 BRILLOUIN|    91           0.00391       -0.31250       -0.06250       -0.18750
 BRILLOUIN|    92           0.00391       -0.31250       -0.06250       -0.06250
 BRILLOUIN|    93           0.00391       -0.31250       -0.06250        0.06250
 BRILLOUIN|    94           0.00391       -0.31250       -0.06250        0.18750
 BRILLOUIN|    95           0.00391       -0.31250       -0.06250        0.31250
 BRILLOUIN|    96           0.00391       -0.31250       -0.06250        0.43750
 BRILLOUIN|    97           0.00391       -0.31250        0.06250       -0.43750
 BRILLOUIN|    98           0.00391       -0.31250        0.06250       -0.31250
 BRILLOUIN|    99           0.00391       -0.31250        0.06250       -0.18750
 BRILLOUIN|   100           0.00391       -0.31250        0.06250       -0.06250
 BRILLOUIN|   101           0.00391       -0.31250        0.06250        0.06250
 BRILLOUIN|   102           0.00391       -0.31250        0.06250        0.18750
 BRILLOUIN|   103           0.00391       -0.31250        0.06250        0.31250
 BRILLOUIN|   104           0.00391       -0.31250        0.06250        0.43750
 BRILLOUIN|   105           0.00391       -0.31250        0.18750       -0.43750
 BRILLOUIN|   106           0.00391       -0.31250        0.18750       -0.31250
 BRILLOUIN|   107           0.00391       -0.31250        0.18750       -0.18750
 BRILLOUIN|   108           0.00391       -0.31250        0.18750       -0.06250
 BRILLOUIN|   109           0.00391       -0.31250        0.18750        0.06250
 BRILLOUIN|   110           0.00391       -0.31250        0.18750        0.18750
 BRILLOUIN|   111           0.00391       -0.31250        0.18750        0.31250
 BRILLOUIN|   112           0.00391       -0.31250        0.18750        0.43750
 BRILLOUIN|   113           0.00391       -0.31250        0.31250       -0.43750
 BRILLOUIN|   114           0.00391       -0.31250        0.31250       -0.31250
 BRILLOUIN|   115           0.00391       -0.31250        0.31250       -0.18750
 BRILLOUIN|   116           0.00391       -0.31250        0.31250       -0.06250
 BRILLOUIN|   117           0.00391       -0.31250        0.31250        0.06250
 BRILLOUIN|   118           0.00391       -0.31250        0.31250        0.18750
 BRILLOUIN|   119           0.00391       -0.31250        0.31250        0.31250
 BRILLOUIN|   120           0.00391       -0.31250        0.31250        0.43750
 BRILLOUIN|   121           0.00391       -0.31250        0.43750       -0.43750
 BRILLOUIN|   122           0.00391       -0.31250        0.43750       -0.31250
 BRILLOUIN|   123           0.00391       -0.31250        0.43750       -0.18750
 BRILLOUIN|   124           0.00391       -0.31250        0.43750       -0.06250
 BRILLOUIN|   125           0.00391       -0.31250        0.43750        0.06250
 BRILLOUIN|   126           0.00391       -0.31250        0.43750        0.18750
 BRILLOUIN|   127           0.00391       -0.31250        0.43750        0.31250
 BRILLOUIN|   128           0.00391       -0.31250        0.43750        0.43750
 BRILLOUIN|   129           0.00391       -0.18750       -0.43750       -0.43750
 BRILLOUIN|   130           0.00391       -0.18750       -0.43750       -0.31250
 BRILLOUIN|   131           0.00391       -0.18750       -0.43750       -0.18750
 BRILLOUIN|   132           0.00391       -0.18750       -0.43750       -0.06250
 BRILLOUIN|   133           0.00391       -0.18750       -0.43750        0.06250
 BRILLOUIN|   134           0.00391       -0.18750       -0.43750        0.18750
 BRILLOUIN|   135           0.00391       -0.18750       -0.43750        0.31250
 BRILLOUIN|   136           0.00391       -0.18750       -0.43750        0.43750
 BRILLOUIN|   137           0.00391       -0.18750       -0.31250       -0.43750
 BRILLOUIN|   138           0.00391       -0.18750       -0.31250       -0.31250
 BRILLOUIN|   139           0.00391       -0.18750       -0.31250       -0.18750
 BRILLOUIN|   140           0.00391       -0.18750       -0.31250       -0.06250
 BRILLOUIN|   141           0.00391       -0.18750       -0.31250        0.06250
 BRILLOUIN|   142           0.00391       -0.18750       -0.31250        0.18750
 BRILLOUIN|   143           0.00391       -0.18750       -0.31250        0.31250
 BRILLOUIN|   144           0.00391       -0.18750       -0.31250        0.43750
 BRILLOUIN|   145           0.00391       -0.18750       -0.18750       -0.43750
 BRILLOUIN|   146           0.00391       -0.18750       -0.18750       -0.31250
 BRILLOUIN|   147           0.00391       -0.18750       -0.18750       -0.18750
 BRILLOUIN|   148           0.00391       -0.18750       -0.18750       -0.06250
 BRILLOUIN|   149           0.00391       -0.18750       -0.18750        0.06250
 BRILLOUIN|   150           0.00391       -0.18750       -0.18750        0.18750
 BRILLOUIN|   151           0.00391       -0.18750       -0.18750        0.31250
 BRILLOUIN|   152           0.00391       -0.18750       -0.18750        0.43750
 BRILLOUIN|   153           0.00391       -0.18750       -0.06250       -0.43750
 BRILLOUIN|   154           0.00391       -0.18750       -0.06250       -0.31250
 BRILLOUIN|   155           0.00391       -0.18750       -0.06250       -0.18750
 BRILLOUIN|   156           0.00391       -0.18750       -0.06250       -0.06250
 BRILLOUIN|   157           0.00391       -0.18750       -0.06250        0.06250
 BRILLOUIN|   158           0.00391       -0.18750       -0.06250        0.18750
 BRILLOUIN|   159           0.00391       -0.18750       -0.06250        0.31250
 BRILLOUIN|   160           0.00391       -0.18750       -0.06250        0.43750
 BRILLOUIN|   161           0.00391       -0.18750        0.06250       -0.43750
 BRILLOUIN|   162           0.00391       -0.18750        0.06250       -0.31250
 BRILLOUIN|   163           0.00391       -0.18750        0.06250       -0.18750
 BRILLOUIN|   164           0.00391       -0.18750        0.06250       -0.06250
 BRILLOUIN|   165           0.00391       -0.18750        0.06250        0.06250
 BRILLOUIN|   166           0.00391       -0.18750        0.06250        0.18750
 BRILLOUIN|   167           0.00391       -0.18750        0.06250        0.31250
 BRILLOUIN|   168           0.00391       -0.18750        0.06250        0.43750
 BRILLOUIN|   169           0.00391       -0.18750        0.18750       -0.43750
 BRILLOUIN|   170           0.00391       -0.18750        0.18750       -0.31250
 BRILLOUIN|   171           0.00391       -0.18750        0.18750       -0.18750
 BRILLOUIN|   172           0.00391       -0.18750        0.18750       -0.06250
 BRILLOUIN|   173           0.00391       -0.18750        0.18750        0.06250
 BRILLOUIN|   174           0.00391       -0.18750        0.18750        0.18750
 BRILLOUIN|   175           0.00391       -0.18750        0.18750        0.31250
 BRILLOUIN|   176           0.00391       -0.18750        0.18750        0.43750
 BRILLOUIN|   177           0.00391       -0.18750        0.31250       -0.43750
 BRILLOUIN|   178           0.00391       -0.18750        0.31250       -0.31250
 BRILLOUIN|   179           0.00391       -0.18750        0.31250       -0.18750
 BRILLOUIN|   180           0.00391       -0.18750        0.31250       -0.06250
 BRILLOUIN|   181           0.00391       -0.18750        0.31250        0.06250
 BRILLOUIN|   182           0.00391       -0.18750        0.31250        0.18750
 BRILLOUIN|   183           0.00391       -0.18750        0.31250        0.31250
 BRILLOUIN|   184           0.00391       -0.18750        0.31250        0.43750
 BRILLOUIN|   185           0.00391       -0.18750        0.43750       -0.43750
 BRILLOUIN|   186           0.00391       -0.18750        0.43750       -0.31250
 BRILLOUIN|   187           0.00391       -0.18750        0.43750       -0.18750
 BRILLOUIN|   188           0.00391       -0.18750        0.43750       -0.06250
 BRILLOUIN|   189           0.00391       -0.18750        0.43750        0.06250
 BRILLOUIN|   190           0.00391       -0.18750        0.43750        0.18750
 BRILLOUIN|   191           0.00391       -0.18750        0.43750        0.31250
 BRILLOUIN|   192           0.00391       -0.18750        0.43750        0.43750
 BRILLOUIN|   193           0.00391       -0.06250       -0.43750       -0.43750
 BRILLOUIN|   194           0.00391       -0.06250       -0.43750       -0.31250
 BRILLOUIN|   195           0.00391       -0.06250       -0.43750       -0.18750
 BRILLOUIN|   196           0.00391       -0.06250       -0.43750       -0.06250
 BRILLOUIN|   197           0.00391       -0.06250       -0.43750        0.06250
 BRILLOUIN|   198           0.00391       -0.06250       -0.43750        0.18750
 BRILLOUIN|   199           0.00391       -0.06250       -0.43750        0.31250
 BRILLOUIN|   200           0.00391       -0.06250       -0.43750        0.43750
 BRILLOUIN|   201           0.00391       -0.06250       -0.31250       -0.43750
 BRILLOUIN|   202           0.00391       -0.06250       -0.31250       -0.31250
 BRILLOUIN|   203           0.00391       -0.06250       -0.31250       -0.18750
 BRILLOUIN|   204           0.00391       -0.06250       -0.31250       -0.06250
 BRILLOUIN|   205           0.00391       -0.06250       -0.31250        0.06250
 BRILLOUIN|   206           0.00391       -0.06250       -0.31250        0.18750
 BRILLOUIN|   207           0.00391       -0.06250       -0.31250        0.31250
 BRILLOUIN|   208           0.00391       -0.06250       -0.31250        0.43750
 BRILLOUIN|   209           0.00391       -0.06250       -0.18750       -0.43750
 BRILLOUIN|   210           0.00391       -0.06250       -0.18750       -0.31250
 BRILLOUIN|   211           0.00391       -0.06250       -0.18750       -0.18750
 BRILLOUIN|   212           0.00391       -0.06250       -0.18750       -0.06250
 BRILLOUIN|   213           0.00391       -0.06250       -0.18750        0.06250
 BRILLOUIN|   214           0.00391       -0.06250       -0.18750        0.18750
 BRILLOUIN|   215           0.00391       -0.06250       -0.18750        0.31250
 BRILLOUIN|   216           0.00391       -0.06250       -0.18750        0.43750
 BRILLOUIN|   217           0.00391       -0.06250       -0.06250       -0.43750
 BRILLOUIN|   218           0.00391       -0.06250       -0.06250       -0.31250
 BRILLOUIN|   219           0.00391       -0.06250       -0.06250       -0.18750
 BRILLOUIN|   220           0.00391       -0.06250       -0.06250       -0.06250
 BRILLOUIN|   221           0.00391       -0.06250       -0.06250        0.06250
 BRILLOUIN|   222           0.00391       -0.06250       -0.06250        0.18750
 BRILLOUIN|   223           0.00391       -0.06250       -0.06250        0.31250
 BRILLOUIN|   224           0.00391       -0.06250       -0.06250        0.43750
 BRILLOUIN|   225           0.00391       -0.06250        0.06250       -0.43750
 BRILLOUIN|   226           0.00391       -0.06250        0.06250       -0.31250
 BRILLOUIN|   227           0.00391       -0.06250        0.06250       -0.18750
 BRILLOUIN|   228           0.00391       -0.06250        0.06250       -0.06250
 BRILLOUIN|   229           0.00391       -0.06250        0.06250        0.06250
 BRILLOUIN|   230           0.00391       -0.06250        0.06250        0.18750
 BRILLOUIN|   231           0.00391       -0.06250        0.06250        0.31250
 BRILLOUIN|   232           0.00391       -0.06250        0.06250        0.43750
 BRILLOUIN|   233           0.00391       -0.06250        0.18750       -0.43750
 BRILLOUIN|   234           0.00391       -0.06250        0.18750       -0.31250
 BRILLOUIN|   235           0.00391       -0.06250        0.18750       -0.18750
 BRILLOUIN|   236           0.00391       -0.06250        0.18750       -0.06250
 BRILLOUIN|   237           0.00391       -0.06250        0.18750        0.06250
 BRILLOUIN|   238           0.00391       -0.06250        0.18750        0.18750
 BRILLOUIN|   239           0.00391       -0.06250        0.18750        0.31250
 BRILLOUIN|   240           0.00391       -0.06250        0.18750        0.43750
 BRILLOUIN|   241           0.00391       -0.06250        0.31250       -0.43750
 BRILLOUIN|   242           0.00391       -0.06250        0.31250       -0.31250
 BRILLOUIN|   243           0.00391       -0.06250        0.31250       -0.18750
 BRILLOUIN|   244           0.00391       -0.06250        0.31250       -0.06250
 BRILLOUIN|   245           0.00391       -0.06250        0.31250        0.06250
 BRILLOUIN|   246           0.00391       -0.06250        0.31250        0.18750
 BRILLOUIN|   247           0.00391       -0.06250        0.31250        0.31250
 BRILLOUIN|   248           0.00391       -0.06250        0.31250        0.43750
 BRILLOUIN|   249           0.00391       -0.06250        0.43750       -0.43750
 BRILLOUIN|   250           0.00391       -0.06250        0.43750       -0.31250
 BRILLOUIN|   251           0.00391       -0.06250        0.43750       -0.18750
 BRILLOUIN|   252           0.00391       -0.06250        0.43750       -0.06250
 BRILLOUIN|   253           0.00391       -0.06250        0.43750        0.06250
 BRILLOUIN|   254           0.00391       -0.06250        0.43750        0.18750
 BRILLOUIN|   255           0.00391       -0.06250        0.43750        0.31250
 BRILLOUIN|   256           0.00391       -0.06250        0.43750        0.43750
 *******************************************************************************

 *******************************************************************************
 *******************************************************************************
 **                                                                           **
 **     #####                         ##              ##                      **
 **    ##   ##            ##          ##              ##                      **
 **   ##     ##                       ##            ######                    **
 **   ##     ##  ##   ##  ##   #####  ##  ##   ####   ##    #####    #####    **
 **   ##     ##  ##   ##  ##  ##      ## ##   ##      ##   ##   ##  ##   ##   **
 **   ##  ## ##  ##   ##  ##  ##      ####     ###    ##   ######   ######    **
 **    ##  ###   ##   ##  ##  ##      ## ##      ##   ##   ##       ##        **
 **     #######   #####   ##   #####  ##  ##  ####    ##    #####   ##        **
 **           ##                                                    ##        **
 **                                                                           **
 **                                                ... make the atoms dance   **
 **                                                                           **
 **            Copyright (C) by CP2K developers group (2000-2024)             **
 **                      J. Chem. Phys. 152, 194103 (2020)                    **
 **                                                                           **
 *******************************************************************************

 DFT| Spin restricted Kohn-Sham (RKS) calculation                            RKS
 DFT| Multiplicity                                                             1
 DFT| Number of spin states                                                    1
 DFT| Charge                                                                   0
 DFT| Self-interaction correction (SIC)                                       NO
 DFT| Cutoffs: density                                              1.000000E-10
 DFT|          gradient                                             1.000000E-10
 DFT|          tau                                                  1.000000E-10
 DFT|          cutoff_smoothing_range                               0.000000E+00
 DFT| XC density smoothing                                                  NONE
 DFT| XC derivatives                                                          PW

 FUNCTIONAL| PADE:
 FUNCTIONAL| S. Goedecker, M. Teter and J. Hutter, Phys. Rev. B 54, 1703 (1996) 


 QS| Method:                                                                 GPW
 QS| Density plane wave grid type                        NON-SPHERICAL FULLSPACE
 QS| Number of grid levels:                                                    4
 QS| Density cutoff [a.u.]:                                                250.0
 QS| Multi grid cutoff [a.u.]: 1) grid level                               250.0
 QS|                           2) grid level                                83.3
 QS|                           3) grid level                                27.8
 QS|                           4) grid level                                 9.3
 QS| Grid level progression factor:                                          3.0
 QS| Relative density cutoff [a.u.]:                                        50.0
 QS| Interaction thresholds: eps_pgf_orb:                                1.0E-12
 QS|                         eps_filter_matrix:                          0.0E+00
 QS|                         eps_core_charge:                            1.0E-14
 QS|                         eps_rho_gspace:                             1.0E-12
 QS|                         eps_rho_rspace:                             1.0E-12
 QS|                         eps_gvg_rspace:                             1.0E-06
 QS|                         eps_ppl:                                    1.0E-02
 QS|                         eps_ppnl:                                   1.0E-08


 ATOMIC KIND INFORMATION

  1. Atomic kind: H                                     Number of atoms:       2

     Orbital Basis Set                                                     cc-DZ

       Number of orbital shell sets:                                           3
       Number of orbital shells:                                               3
       Number of primitive Cartesian functions:                                5
       Number of Cartesian basis functions:                                    5
       Number of spherical basis functions:                                    5
       Norm type:                                                              2

       Normalised Cartesian orbitals:

                        Set   Shell   Orbital            Exponent    Coefficient

                          1       1    1s                0.165824       0.185202

                          2       1    1s                8.374435      -0.191705
                                                         1.805868      -0.285532
                                                         0.485253      -0.319237

                          3       1    1px               0.727000       0.956881
                          3       1    1py               0.727000       0.956881
                          3       1    1pz               0.727000       0.956881

     RI Auxiliary Basis Set                                                RI_DZ

       Number of orbital shell sets:                                           6
       Number of orbital shells:                                               6
       Number of primitive Cartesian functions:                                6
       Number of Cartesian basis functions:                                   15
       Number of spherical basis functions:                                   14
       Norm type:                                                              2

       Normalised Cartesian orbitals:

                        Set   Shell   Orbital            Exponent    Coefficient

                          1       1    1s                0.320318       0.303456

                          2       1    1px               0.985951       1.400424
                          2       1    1py               0.985951       1.400424
                          2       1    1pz               0.985951       1.400424

                          3       1    1s                1.147244       0.790045

                          4       1    1dx2              1.171485       2.171194
                          4       1    1dxy              1.171485       3.760618
                          4       1    1dxz              1.171485       3.760618
                          4       1    1dy2              1.171485       2.171194
                          4       1    1dyz              1.171485       3.760618
                          4       1    1dz2              1.171485       2.171194

                          5       1    1px               1.914940       3.210954
                          5       1    1py               1.914940       3.210954
                          5       1    1pz               1.914940       3.210954

                          6       1    1s                5.115332       2.424183

       Atomic covalent radius [Angstrom]:                                  0.320

       Atomic van der Waals radius [Angstrom]:                             1.090

     GTH Potential information for                                   GTH-PADE-q1

       Description:                       Goedecker-Teter-Hutter pseudopotential
                                           Goedecker et al., PRB 54, 1703 (1996)
                                          Hartwigsen et al., PRB 58, 3641 (1998)
                                                      Krack, TCA 114, 145 (2005)

       Gaussian exponent of the core charge distribution:              12.500000
       Electronic configuration (s p d ...):                                   1

       Parameters of the local part of the GTH pseudopotential:

                          rloc        C1          C2          C3          C4
                        0.200000   -4.180237    0.725075


 MOLECULE KIND INFORMATION


 All atoms are their own molecule, skipping detailed information


 TOTAL NUMBERS AND MAXIMUM NUMBERS

  Total number of            - Atomic kinds:                                   1
                             - Atoms:                                          2
                             - Shell sets:                                     6
                             - Shells:                                         6
                             - Primitive Cartesian functions:                 10
                             - Cartesian basis functions:                     10
                             - Spherical basis functions:                     10

  Maximum angular momentum of- Orbital basis functions:                        1
                             - Local part of the GTH pseudopotential:          2


 MODULE QUICKSTEP: ATOMIC COORDINATES IN ANGSTROM

   Atom Kind Element         X             Y             Z       Z(eff)     Mass
      1    1 H     1      0.000000      0.000000      0.000000   1.0000   1.0079
      2    1 H     1      0.000000      0.000000      0.700000   1.0000   1.0079



 SCF PARAMETERS         Density guess:                                    ATOMIC
                        --------------------------------------------------------
                        max_scf:                                            1000
                        max_scf_history:                                       0
                        max_diis:                                              4
                        --------------------------------------------------------
                        eps_scf:                                        1.00E-09
                        eps_scf_history:                                0.00E+00
                        eps_diis:                                       1.00E-01
                        eps_eigval:                                     1.00E-05
                        --------------------------------------------------------
                        level_shift [a.u.]:                             0.000000
                        added MOs                                         9    0
                        --------------------------------------------------------
                        Mixing method:                            BROYDEN_MIXING
                                                charge density mixing in g-space
                        --------------------------------------------------------
                        No outer SCF

 PW_GRID| Information for grid number                                          1
 PW_GRID| Grid distributed over                                   128 processors
 PW_GRID| Real space group dimensions                                     8   16
 PW_GRID| the grid is blocked:                                               YES
 PW_GRID| Cutoff [a.u.]                                                    250.0
 PW_GRID| spherical cutoff:                                                   NO
 PW_GRID|   Bounds   1            -27      26                Points:          54
 PW_GRID|   Bounds   2            -27      26                Points:          54
 PW_GRID|   Bounds   3            -45      44                Points:          90
 PW_GRID| Volume element (a.u.^3)  0.2154E-02     Volume (a.u.^3)       565.3450
 PW_GRID| Grid span                                                    FULLSPACE
 PW_GRID|   Distribution                         Average         Max         Min
 PW_GRID|   G-Vectors                             2050.3        2268        1620
 PW_GRID|   G-Rays                                  38.0          42          30
 PW_GRID|   Real Space Points                     2050.3        2268        1620

 PW_GRID| Information for grid number                                          2
 PW_GRID| Number of the reference grid                                         1
 PW_GRID| Grid distributed over                                   128 processors
 PW_GRID| Real space group dimensions                                     8   16
 PW_GRID| the grid is blocked:                                                NO
 PW_GRID| Cutoff [a.u.]                                                     83.3
 PW_GRID| spherical cutoff:                                                   NO
 PW_GRID|   Bounds   1            -16      15                Points:          32
 PW_GRID|   Bounds   2            -16      15                Points:          32
 PW_GRID|   Bounds   3            -27      26                Points:          54
 PW_GRID| Volume element (a.u.^3)  0.1022E-01     Volume (a.u.^3)       565.3450
 PW_GRID| Grid span                                                    FULLSPACE
 PW_GRID|   Distribution                         Average         Max         Min
 PW_GRID|   G-Vectors                              432.0        1344           0
 PW_GRID|   G-Rays                                  13.5          42           0
 PW_GRID|   Real Space Points                      432.0         432         432

 PW_GRID| Information for grid number                                          3
 PW_GRID| Number of the reference grid                                         1
 PW_GRID| Grid distributed over                                   128 processors
 PW_GRID| Real space group dimensions                                     8   16
 PW_GRID| the grid is blocked:                                                NO
 PW_GRID| Cutoff [a.u.]                                                     27.8
 PW_GRID| spherical cutoff:                                                   NO
 PW_GRID|   Bounds   1             -9       8                Points:          18
 PW_GRID|   Bounds   2             -9       8                Points:          18
 PW_GRID|   Bounds   3            -15      14                Points:          30
 PW_GRID| Volume element (a.u.^3)  0.5816E-01     Volume (a.u.^3)       565.3450
 PW_GRID| Grid span                                                    FULLSPACE
 PW_GRID|   Distribution                         Average         Max         Min
 PW_GRID|   G-Vectors                               75.9         756           0
 PW_GRID|   G-Rays                                   4.2          42           0
 PW_GRID|   Real Space Points                       75.9         180          60

 PW_GRID| Information for grid number                                          4
 PW_GRID| Number of the reference grid                                         1
 PW_GRID| Grid distributed over                                   128 processors
 PW_GRID| Real space group dimensions                                     8   16
 PW_GRID| the grid is blocked:                                                NO
 PW_GRID| Cutoff [a.u.]                                                      9.3
 PW_GRID| spherical cutoff:                                                   NO
 PW_GRID|   Bounds   1             -6       5                Points:          12
 PW_GRID|   Bounds   2             -6       5                Points:          12
 PW_GRID|   Bounds   3             -9       8                Points:          18
 PW_GRID| Volume element (a.u.^3)  0.2181         Volume (a.u.^3)       565.3450
 PW_GRID| Grid span                                                    FULLSPACE
 PW_GRID|   Distribution                         Average         Max         Min
 PW_GRID|   G-Vectors                               20.2         432           0
 PW_GRID|   G-Rays                                   1.7          36           0
 PW_GRID|   Real Space Points                       20.2          36           0

 POISSON| Solver                                                        PERIODIC
 POISSON| Periodicity                                                        XYZ

 RS_GRID| Information for grid number                                          1
 RS_GRID|   Bounds   1            -27      26                Points:          54
 RS_GRID|   Bounds   2            -27      26                Points:          54
 RS_GRID|   Bounds   3            -45      44                Points:          90
 RS_GRID| Real space fully replicated
 RS_GRID| Group size                                                           1

 RS_GRID| Information for grid number                                          2
 RS_GRID|   Bounds   1            -16      15                Points:          32
 RS_GRID|   Bounds   2            -16      15                Points:          32
 RS_GRID|   Bounds   3            -27      26                Points:          54
 RS_GRID| Real space fully replicated
 RS_GRID| Group size                                                           1

 RS_GRID| Information for grid number                                          3
 RS_GRID|   Bounds   1             -9       8                Points:          18
 RS_GRID|   Bounds   2             -9       8                Points:          18
 RS_GRID|   Bounds   3            -15      14                Points:          30
 RS_GRID| Real space fully replicated
 RS_GRID| Group size                                                           1

 RS_GRID| Information for grid number                                          4
 RS_GRID|   Bounds   1             -6       5                Points:          12
 RS_GRID|   Bounds   2             -6       5                Points:          12
 RS_GRID|   Bounds   3             -9       8                Points:          18
 RS_GRID| Real space fully replicated
 RS_GRID| Group size                                                           1

 Number of electrons:                                                          2
 Number of occupied orbitals:                                                  1
 Number of molecular orbitals:                                                10

 Number of orbital functions:                                                 10
 Number of independent orbital functions:                                     10

 Extrapolation method: initial_guess

 Atomic guess: The first density matrix is obtained in terms of atomic orbitals
               and electronic configurations assigned to each atomic kind

 Guess for atomic kind: H

 Electronic structure
    Total number of core electrons                                          0.00
    Total number of valence electrons                                       1.00
    Total number of electrons                                               1.00
    Multiplicity                                                   not specified
    S      1.00


 *******************************************************************************
                  Iteration          Convergence                     Energy [au]
 *******************************************************************************
                          1        0.147171E-02                  -0.421723711027
                          2        0.157122E-03                  -0.421725945021
                          3        0.196312E-07                  -0.421725970773

 Energy components [Hartree]           Total Energy ::           -0.421725970773
                                        Band Energy ::           -0.187780976674
                                     Kinetic Energy ::            0.476586039475
                                   Potential Energy ::           -0.898312010248
                                      Virial (-V/T) ::            1.884889476070
                                        Core Energy ::           -0.480158516611
                                          XC Energy ::           -0.252039314035
                                     Coulomb Energy ::            0.310471859872
                       Total Pseudopotential Energy ::           -0.973399080031
                       Local Pseudopotential Energy ::           -0.973399080031
                    Nonlocal Pseudopotential Energy ::            0.000000000000
                                        Confinement ::            0.166545239452

 Orbital energies  State     L     Occupation   Energy[a.u.]          Energy[eV]

                       1     0          1.000      -0.187781           -5.109780


 Total Electron Density at R=0:                                         0.222989
 Re-scaling the density matrix to get the right number of electrons
                  # Electrons              Trace(P)               Scaling factor
                            2                 2.000                        1.000


 SCF WAVEFUNCTION OPTIMIZATION

  Step     Update method      Time    Convergence         Total energy    Change
  ------------------------------------------------------------------------------
     1 NoMix/Diag. 0.10E+00    1.4     0.31943971        -0.9447423791 -9.45E-01
     2 Broy./Diag. 0.10E+00    1.2     0.00271015        -0.7351183446  2.10E-01
     3 Broy./Diag. 0.10E+00    1.1     0.03661176        -1.0264975951 -2.91E-01
     4 Broy./Diag. 0.10E+00    1.1     0.00050373        -1.0940511027 -6.76E-02
     5 Broy./Diag. 0.10E+00    1.1     0.00409181        -1.1033315109 -9.28E-03
     6 Broy./Diag. 0.10E+00    1.1     0.00009177        -1.1125619885 -9.23E-03
     7 Broy./Diag. 0.10E+00    1.2     0.00075086        -1.1231062999 -1.05E-02
     8 Broy./Diag. 0.10E+00    1.2     0.00038977        -1.1272772983 -4.17E-03
     9 Broy./Diag. 0.10E+00    1.1     0.00144995        -1.1254153771  1.86E-03
    10 Broy./Diag. 0.10E+00    1.1     0.00013430        -1.1275052895 -2.09E-03
    11 Broy./Diag. 0.10E+00    1.1     0.00086537        -1.1265572113  9.48E-04
    12 Broy./Diag. 0.10E+00    1.2     0.00000484        -1.1279286327 -1.37E-03
    13 Broy./Diag. 0.10E+00    1.2     0.00002437        -1.1273264951  6.02E-04
    14 Broy./Diag. 0.10E+00    1.2     0.00001903        -1.1272637212  6.28E-05
    15 Broy./Diag. 0.10E+00    1.1     0.00001204        -1.1272126003  5.11E-05
    16 Broy./Diag. 0.10E+00    1.1     0.00000243        -1.1272152962 -2.70E-06
    17 Broy./Diag. 0.10E+00    1.1     0.00000394        -1.1271770779  3.82E-05
    18 Broy./Diag. 0.10E+00    1.1     0.00000250        -1.1271635254  1.36E-05
    19 Broy./Diag. 0.10E+00    1.2     0.00000116        -1.1271741166 -1.06E-05
    20 Broy./Diag. 0.10E+00    1.2     0.00000126        -1.1271882429 -1.41E-05
    21 Broy./Diag. 0.10E+00    1.2     0.00000006        -1.1271920330 -3.79E-06
    22 Broy./Diag. 0.10E+00    1.1     0.00000009        -1.1271898174  2.22E-06
    23 Broy./Diag. 0.10E+00    1.1     0.00000009        -1.1271893816  4.36E-07
    24 Broy./Diag. 0.10E+00    1.2     0.00000015        -1.1271887836  5.98E-07
    25 Broy./Diag. 0.10E+00    1.2     0.00000044        -1.1271882526  5.31E-07
    26 Broy./Diag. 0.10E+00    1.1     0.00000008        -1.1271881857  6.69E-08
    27 Broy./Diag. 0.10E+00    1.1     0.00000039        -1.1271902031 -2.02E-06
    28 Broy./Diag. 0.10E+00    1.1     0.00000014        -1.1271904751 -2.72E-07
    29 Broy./Diag. 0.10E+00    1.2     0.00000003        -1.1271890274  1.45E-06
    30 Broy./Diag. 0.10E+00    1.1     0.00000006        -1.1271879387  1.09E-06
    31 Broy./Diag. 0.10E+00    1.1     0.00000008        -1.1271882453 -3.07E-07
    32 Broy./Diag. 0.10E+00    1.1     0.00000013        -1.1271891502 -9.05E-07
    33 Broy./Diag. 0.10E+00    1.3     0.00000003        -1.1271894852 -3.35E-07
    34 Broy./Diag. 0.10E+00    1.1     0.00000001        -1.1271895445 -5.92E-08
    35 Broy./Diag. 0.10E+00    1.1     2.7959E-09        -1.1271895178  2.67E-08
    36 Broy./Diag. 0.10E+00    1.1     0.00000001        -1.1271894313  8.65E-08
    37 Broy./Diag. 0.10E+00    1.1     0.00000001        -1.1271893351  9.62E-08
    38 Broy./Diag. 0.10E+00    1.2     4.5950E-09        -1.1271893497 -1.45E-08
    39 Broy./Diag. 0.10E+00    1.2     0.00000001        -1.1271894214 -7.17E-08
    40 Broy./Diag. 0.10E+00    1.1     4.8082E-09        -1.1271894538 -3.25E-08
    41 Broy./Diag. 0.10E+00    1.1     8.9345E-10        -1.1271894524  1.40E-09

  *** SCF run converged in    41 steps ***


  Electronic density on regular grids:         -2.0000000000        0.0000000000
  Core density on regular grids:                2.0000000000       -0.0000000000
  Total charge density on r-space grids:        0.0000000000
  Total charge density g-space grids:           0.0000000000

  Overlap energy of the core charge distribution:               0.00000220242433
  Self energy of the core charge distribution:                 -2.82094791773878
  Core Hamiltonian energy:                                      0.98710575810632
  Hartree energy:                                               1.38014035328517
  Exchange-correlation energy:                                 -0.67348984848810

  Total energy:                                                -1.12718945241107

 !-----------------------------------------------------------------------------!
                     Mulliken Population Analysis

 #  Atom  Element  Kind  Atomic population                           Net charge
       1     H        1          1.000000                             -0.000000
       2     H        1          1.000000                              0.000000
 # Total charge                              2.000000                 -0.000000

 !-----------------------------------------------------------------------------!

 !-----------------------------------------------------------------------------!
                           Hirshfeld Charges

  #Atom  Element  Kind  Ref Charge     Population                    Net charge
      1       H      1       1.000          0.949                         0.051
      2       H      1       1.000          0.949                         0.051

  Total Charge                                                            0.102
 !-----------------------------------------------------------------------------!
  
 -------------------------------------------------------------------------------
 -                                                                             -
 -                          BANDSTRUCTURE CALCULATION                          -
 -                                                                             -
 -------------------------------------------------------------------------------
  
 Number of occupied molecular orbitals (MOs) = Number of occupied bands        1
 Number of unoccupied (= virtual) MOs = Number of unoccupied bands             9
 Number of Gaussian basis functions for MOs                                   10
 Number of cells considered in the DFT calculation                           113
 Number of cells for G, , W,                                               343
 Number of special k-points for the bandstructure                              3
 Number of k-points for the bandstructure                                    535
  
 -------------------------------------------------------------------------------
 -                                                                             -
 -                              GW CALCULATION                                 -
 -                                                                             -
 -------------------------------------------------------------------------------
  
 Input: Number of time/freq. points                                           30
 Input: Filter threshold for sparse tensor operations                    1.0E-09
 Apply Hedin shift                                                             F
  
 Number of auxiliary Gaussian basis functions for , , W                     28
 Cutoff radius for the truncated Coulomb operator in ^x:                 11.8 
 Cutoff radius for the truncated Coulomb operator in RI metric:            3.0 
 Regularization parameter of RI                                          1.0E-02
 Lattice sum size for V(k):                                                    3
  
 K-point mesh 1 for , , W                                           32  32  32
 K-point mesh 2 for , , W (for k-point extrapolation of W)          64  64  64
 Approximate the k-point extrapolation                                         F
 Radius of atomic orbitals                                                 7.1 
 Radius of RI functions                                                    5.1 
 Number of cells for 3c integrals                                             75
 Number of cell pairs for 3c integrals                                      1249
 
 Input: Available memory per MPI process                                 10.0 GB
 Used memory per MPI process before GW run                                0.7 GB
 Memory of three-center integrals                                         0.0 GB
 Group size for tensor operations                                              1
 Number of cells R                                                          431
 Min. abs. eigenvalue of RI metric matrix M(k)                           7.3E-03
 Max. abs. eigenvalue of RI metric matrix M(k)                           1.2E+02
 Max. condition number of M(k)                                           1.5E+04
 
 SCF direct band gap (eV)                                                  12.00
 Max. SCF eigval diff. (eV)                                               103.23
 E-Range for minimax grid                                                   8.61
 Number of Pad parameters for analytic continuation:                         16
 
 Computed ^R(i) for time point            1 / 30,      Execution time    5.0 s
 Computed ^R(i) for time point            2 / 30,      Execution time    5.0 s
 Computed ^R(i) for time point            3 / 30,      Execution time    5.0 s
 Computed ^R(i) for time point            4 / 30,      Execution time    5.0 s
 Computed ^R(i) for time point            5 / 30,      Execution time    5.0 s
 Computed ^R(i) for time point            6 / 30,      Execution time    5.0 s
 Computed ^R(i) for time point            7 / 30,      Execution time    5.0 s
 Computed ^R(i) for time point            8 / 30,      Execution time    5.0 s
 Computed ^R(i) for time point            9 / 30,      Execution time    5.0 s
 Computed ^R(i) for time point           10 / 30,      Execution time    5.0 s
 Computed ^R(i) for time point           11 / 30,      Execution time    5.0 s
 Computed ^R(i) for time point           12 / 30,      Execution time    5.0 s
 Computed ^R(i) for time point           13 / 30,      Execution time    4.7 s
 Computed ^R(i) for time point           14 / 30,      Execution time    4.5 s
 Computed ^R(i) for time point           15 / 30,      Execution time    3.6 s
 Computed ^R(i) for time point           16 / 30,      Execution time    3.3 s
 Computed ^R(i) for time point           17 / 30,      Execution time    2.7 s
 Computed ^R(i) for time point           18 / 30,      Execution time    2.2 s
 Computed ^R(i) for time point           19 / 30,      Execution time    2.2 s
 Computed ^R(i) for time point           20 / 30,      Execution time    2.2 s
 Computed ^R(i) for time point           21 / 30,      Execution time    2.2 s
 Computed ^R(i) for time point           22 / 30,      Execution time    2.3 s
 Computed ^R(i) for time point           23 / 30,      Execution time    2.2 s
 Computed ^R(i) for time point           24 / 30,      Execution time    2.2 s
 Computed ^R(i) for time point           25 / 30,      Execution time    2.3 s
 Computed ^R(i) for time point           26 / 30,      Execution time    2.2 s
 Computed ^R(i) for time point           27 / 30,      Execution time    2.3 s
 Computed ^R(i) for time point           28 / 30,      Execution time    2.4 s
 Computed ^R(i) for time point           29 / 30,      Execution time    2.2 s
 Computed ^R(i) for time point           30 / 30,      Execution time    2.2 s
 N2testcos :    4.1777703518874887E-010
 N2testsin :    3.1173286174634995E-011
 N2testcosd :    4.5468482312571723E-009
 N2testsind :    1.3253509223432047E-007
 N2testcosq :    1.0006857337430120E-004
 N2testsinq :    1.4988880138844252E-005
 N2testcos :    4.6008694076782319E-010
 N2testsin :    1.2645495761631764E-011
 N2testcosd :    7.7474737736338284E-009
 N2testsind :    4.9978666538663674E-008
 N2testcosq :    8.7173772044479847E-005
 N2testsinq :    1.0982505045831203E-005
 N2testcos :    1.2497902712738096E-010
 N2testsin :    9.8338559517685553E-012
 N2testcosd :    7.9139681474771351E-009
 N2testsind :    8.7739749687898438E-008
 N2testcosq :    3.4479613532312214E-005
 N2testsinq :    2.3667933419346809E-005
 N2testcos :    1.4488621413732972E-010
 N2testsin :    2.2280260969509413E-011
 N2testcosd :    7.2659531724639237E-009
 N2testsind :    3.2356183510273695E-008
 N2testcosq :    3.5572120395954698E-005
 N2testsinq :    2.7832291380036622E-005
 N2testcos :    1.1533718424772132E-010
 N2testsin :    2.2844781621955690E-011
 N2testcosd :    7.3393664479226572E-009
 N2testsind :    1.3874483784093172E-008
 N2testcosq :    3.0521710868924856E-005
 N2testsinq :    1.3609183952212334E-005
 N2testcos :    3.4538949478246650E-010
 N2testsin :    3.0216773527769192E-011
 N2testcosd :    9.5832319857436232E-009
 N2testsind :    8.1813630004035076E-007
 N2testcosq :    4.2987579945474863E-005
 N2testsinq :    7.3941773734986782E-006
 N2testcos :    1.6116080692185619E-010
 N2testsin :    2.3293811324265334E-011
 N2testcosd :    4.4661874198936857E-009
 N2testsind :    2.9115653887856752E-008
 N2testcosq :    4.3977343011647463E-005
 N2testsinq :    1.2769305612891912E-005
 N2testcos :    4.2012526790813354E-010
 N2testsin :    1.3834267065249151E-011
 N2testcosd :    6.5157337303389795E-009
 N2testsind :    7.9054586876736721E-008
 N2testcosq :    7.4776064138859510E-005
 N2testsinq :    8.9129316620528698E-006
 N2testcos :    3.8743913632899307E-010
 N2testsin :    1.4646839296972303E-011
 N2testcosd :    1.0372446013207082E-008
 N2testsind :    1.2371606317174155E-007
 N2testcosq :    8.7569816969335079E-005
 N2testsinq :    4.4012558646500111E-006
 N2testcos :    2.3463864184947170E-010
 N2testsin :    4.1625258795363607E-011
 N2testcosd :    8.4381213127926458E-009
 N2testsind :    3.0258576089181588E-008
 N2testcosq :    4.1167601011693478E-005
 N2testsinq :    2.5187560822814703E-005
 N2testcos :    1.1606388072848972E-010
 N2testsin :    2.3186119690876694E-011
 N2testcosd :    6.6274878918193281E-009
 N2testsind :    1.2232078461238416E-008
 N2testcosq :    3.0770810553804040E-005
 N2testsinq :    1.5358149539679289E-005
 N2testcos :    1.0968984054393616E-010
 N2testsin :    1.6709952865845423E-011
 N2testcosd :    1.2561997664306546E-008
 N2testsind :    2.3153006623033434E-008
 N2testcosq :    3.4995042369700968E-005
 N2testsinq :    2.4471839424222708E-005
 N2testcos :    1.1927436815994952E-010
 N2testsin :    2.6044721934681547E-011
 N2testcosd :    1.2267264537513256E-008
 N2testsind :    1.7475315416959347E-008
 N2testcosq :    2.5426386855542660E-005
 N2testsinq :    5.0048518460243940E-005
 N2testcos :    1.2717282782404027E-010
 N2testsin :    9.0744078917737170E-012
 N2testcosd :    8.2592350736376829E-009
 N2testsind :    8.7488388089695945E-008
 N2testcosq :    3.4365584724582732E-005
 N2testsinq :    1.0012303391704336E-005
 N2testcos :    2.2539137223276384E-010
 N2testsin :    2.7391422463551862E-011
 N2testcosd :    9.2471168500196654E-009
 N2testsind :    3.0115984372969251E-008
 N2testcosq :    4.1092396713793278E-005
 N2testsinq :    2.0635721739381552E-005
 N2testcos :    4.2445708059446474E-010
 N2testsin :    1.3498327455785386E-011
 N2testcosd :    7.1155454861582257E-009
 N2testsind :    7.9357675986102549E-008
 N2testcosq :    7.5379575719125569E-005
 N2testsinq :    7.4992567533627152E-006
 N2testcos :    1.7705081845065251E-010
 N2testsin :    6.7432948114287683E-011
 N2testcosd :    9.9785211205016822E-009
 N2testsind :    8.1959251474472694E-007
 N2testcosq :    7.0554669946432114E-005
 N2testsinq :    1.9596714992076159E-005
 N2testcos :    4.2614033135546237E-010
 N2testsin :    1.5139112186091097E-011
 N2testcosd :    6.5396505988246645E-009
 N2testsind :    7.9402866504096892E-008
 N2testcosq :    7.5748146628029644E-005
 N2testsinq :    8.3873746916651726E-006
 N2testcos :    1.1816880807202779E-010
 N2testsin :    2.8898994308690362E-011
 N2testcosd :    1.0921439752564766E-008
 N2testsind :    1.9573462850530632E-008
 N2testcosq :    2.6692636311054230E-005
 N2testsinq :    1.5152239939197898E-005
 N2testcos :    1.9141876972383898E-010
 N2testsin :    3.9623762604357182E-011
 N2testcosd :    1.0441340236866381E-008
 N2testsind :    3.5989273783343378E-008
 N2testcosq :    9.3793816631659865E-005
 N2testsinq :    5.5162468925118446E-005
 N2testcos :    1.0077449985601561E-010
 N2testsin :    9.4615426604605091E-012
 N2testcosd :    1.0109374670719262E-008
 N2testsind :    2.4689711608516518E-008
 N2testcosq :    2.4051754735410213E-005
 N2testsinq :    2.2104592062532902E-005
 N2testcos :    4.1385084248446447E-010
 N2testsin :    2.9765412357107834E-011
 N2testcosd :    4.6427999222942162E-009
 N2testsind :    1.3219056427260512E-007
 N2testcosq :    1.0052119614556432E-004
 N2testsinq :    1.5256984625011683E-005
 N2testcos :    1.8586404637588316E-010
 N2testsin :    3.2475910849427692E-011
 N2testcosd :    1.1066035199291946E-008
 N2testsind :    2.6044062906294130E-008
 N2testcosq :    1.5798531239852309E-004
 N2testsinq :    4.2728875996544957E-005
 N2testcos :    1.8709778171199787E-010
 N2testsin :    4.0557779357186519E-011
 N2testcosd :    1.0798430594149977E-008
 N2testsind :    2.8516296879388392E-008
 N2testcosq :    2.0004797261208296E-004
 N2testsinq :    2.1092549650347792E-004
 N2testcos :    1.1071366046166986E-010
 N2testsin :    1.1393219701005819E-011
 N2testcosd :    1.6872064634299022E-008
 N2testsind :    2.0294578462198842E-008
 N2testcosq :    4.1093691834248602E-005
 N2testsinq :    3.0527706257998943E-005
 N2testcos :    1.3020007294528568E-010
 N2testsin :    1.0050960064234005E-011
 N2testcosd :    8.8136857812060043E-009
 N2testsind :    8.7494740341753641E-008
 N2testcosq :    2.1360581740736961E-005
 N2testsinq :    4.3785039451904595E-005
 N2testcos :    2.2493207296747642E-010
 N2testsin :    3.9244496541357421E-011
 N2testcosd :    8.7154035099956673E-009
 N2testsind :    2.7637952371151187E-008
 N2testcosq :    4.0995131712406874E-005
 N2testsinq :    1.4956225641071796E-005
 N2testcos :    1.8779666710599940E-010
 N2testsin :    4.0109970900203962E-011
 N2testcosd :    1.0479652701178566E-008
 N2testsind :    3.7930789176243707E-008
 N2testcosq :    4.3622509110718966E-005
 N2testsinq :    3.9624639612156898E-005
 N2testcos :    2.3916713054461525E-010
 N2testsin :    3.6863956331956160E-011
 N2testcosd :    9.0602725322241895E-009
 N2testsind :    2.8839849619544111E-008
 N2testcosq :    4.1185761801898479E-005
 N2testsinq :    2.7518224669620395E-005
 N2testcos :    3.4590641462273197E-010
 N2testsin :    3.0454083699282819E-011
 N2testcosd :    1.1267211164067703E-008
 N2testsind :    8.1834559750859626E-007
 N2testcosq :    7.4504670919850469E-005
 N2testsinq :    1.7101585399359465E-005
 N2testcos :    2.0113083420980615E-010
 N2testsin :    3.0361047009819231E-011
 N2testcosd :    1.4483404697784863E-008
 N2testsind :    5.7569991440686863E-008
 N2testcosq :    4.1948631405830383E-005
 N2testsinq :    7.3460396379232407E-006
 N2testcos :    1.1298595392617017E-010
 N2testsin :    1.4674927939495319E-011
 N2testcosd :    1.5732553038105834E-008
 N2testsind :    1.7816432773543056E-008
 N2testcosq :    3.2667740015313029E-005
 N2testsinq :    3.0354131013154984E-005
 N2testcos :    1.0177250708842678E-010
 N2testsin :    1.0066947275788607E-011
 N2testcosd :    1.0007738637796137E-008
 N2testsind :    2.5679128157207742E-008
 N2testcosq :    2.3637083359062672E-005
 N2testsinq :    2.0551728084683418E-005
 N2testcos :    1.3642928453627690E-010
 N2testsin :    1.2894463274903956E-011
 N2testcosd :    7.7862978287157603E-009
 N2testsind :    5.4041990438236098E-008
 N2testcosq :    1.5084643382579088E-004
 N2testsinq :    9.7750918939709663E-005
 N2testcos :    1.1136919164655978E-010
 N2testsin :    8.6372159424641382E-012
 N2testcosd :    7.3126216193486471E-009
 N2testsind :    8.1607822721707635E-009
 N2testcosq :    2.4442728317808360E-005
 N2testsinq :    3.8656289689242840E-006
 N2testcos :    1.0193568211747106E-010
 N2testsin :    9.7377661489872480E-012
 N2testcosd :    9.4503889158659149E-009
 N2testsind :    2.6851239454117604E-008
 N2testcosq :    2.3658212739974260E-005
 N2testsinq :    1.8449733033776283E-005
 N2testcos :    1.5113066353933391E-010
 N2testsin :    1.8127166434567243E-011
 N2testcosd :    8.1435018728370778E-009
 N2testsind :    5.4227470513978915E-008
 N2testcosq :    3.5015749745070934E-005
 N2testsinq :    2.0767620299011469E-005
 N2testcos :    1.2316847541882225E-010
 N2testsin :    1.6012080550353858E-011
 N2testcosd :    6.4190999182756059E-009
 N2testsind :    1.6693479665264022E-007
 N2testcosq :    3.9170088712126017E-005
 N2testsinq :    8.7306834757328033E-006
 N2testcos :    1.9168411302672439E-010
 N2testsin :    1.1486811501981720E-011
 N2testcosd :    6.4505343289056327E-009
 N2testsind :    1.6586568563070614E-008
 N2testcosq :    5.0652015488594770E-005
 N2testsinq :    1.7583486624062061E-005
 N2testcos :    1.1212528128190513E-010
 N2testsin :    9.0724650014806230E-012
 N2testcosd :    7.5077224437336554E-009
 N2testsind :    8.6414502220577560E-009
 N2testcosq :    2.4131382815539837E-005
 N2testsinq :    4.6248896978795528E-006
 N2testcos :    2.0124313326874699E-010
 N2testsin :    3.0563163111452241E-011
 N2testcosd :    1.4393094716069754E-008
 N2testsind :    5.7422170129939332E-008
 N2testcosq :    4.2006024159491062E-005
 N2testsinq :    7.4932468123733997E-006
 N2testcos :    1.6288714821399708E-010
 N2testsin :    2.2748802841476845E-011
 N2testcosd :    4.2671217670431361E-009
 N2testsind :    2.9412603907985613E-008
 N2testcosq :    4.4412794522941113E-005
 N2testsinq :    1.4778925105929375E-005
 N2testcos :    1.2700784868258097E-010
 N2testsin :    8.9089846611045687E-012
 N2testcosd :    8.5827878137934022E-009
 N2testsind :    8.7644224322502851E-008
 N2testcosq :    2.1152489352971315E-005
 N2testsinq :    3.0315182812046260E-005
 N2testcos :    3.6152575377812468E-010
 N2testsin :    8.7555518391013720E-012
 N2testcosd :    1.2835698726121336E-008
 N2testsind :    1.0212318102276186E-007
 N2testcosq :    9.0710644144564867E-005
 N2testsinq :    5.2532996051013470E-006
 N2testcos :    4.5978039431293638E-010
 N2testsin :    1.3608447702040394E-011
 N2testcosd :    5.9572471400315408E-009
 N2testsind :    5.0489120440033730E-008
 N2testcosq :    8.6483923951163888E-005
 N2testsinq :    1.0786694474518299E-005
 N2testcos :    1.7662094009551765E-010
 N2testsin :    4.2627512630843967E-011
 N2testcosd :    9.2126128947711550E-009
 N2testsind :    1.7909201233123895E-008
 N2testcosq :    3.9722035580780357E-005
 N2testsinq :    3.0774914193898439E-005
 N2testcos :    1.8324210204756497E-010
 N2testsin :    9.5641272679358735E-012
 N2testcosd :    1.0021778962254757E-008
 N2testsind :    7.9984090461948654E-008
 N2testcosq :    4.6498847950715572E-005
 N2testsinq :    6.5339263528585434E-006
 N2testcos :    1.2549905559211538E-010
 N2testsin :    1.3742895710322500E-011
 N2testcosd :    6.6014820276905084E-009
 N2testsind :    1.6775732092355611E-007
 N2testcosq :    3.9317877963185310E-005
 N2testsinq :    7.9576275311410427E-006
 N2testcos :    1.1940515243225036E-010
 N2testsin :    2.6712965173203429E-011
 N2testcosd :    1.0892449608945753E-008
 N2testsind :    1.9624678770924220E-008
 N2testcosq :    2.6293040718883276E-005
 N2testsinq :    3.8029771531000733E-005
 N2testcos :    1.0121947724428537E-010
 N2testsin :    6.6855410096877677E-012
 N2testcosd :    9.5998871074698400E-009
 N2testsind :    2.7357259568816517E-008
 N2testcosq :    2.3667002096772194E-005
 N2testsinq :    2.8538517653942108E-005
 N2testcos :    1.3180434521586903E-010
 N2testsin :    8.1789575112622970E-012
 N2testcosd :    4.8677293307264335E-009
 N2testsind :    8.5131802052273997E-008
 N2testcosq :    2.2628053557127714E-005
 N2testsinq :    6.3571205828338861E-006
 N2testcos :    1.8864478035229837E-010
 N2testsin :    3.1950997403384918E-011
 N2testcosd :    5.9442299971124157E-009
 N2testsind :    4.6268382902781013E-008
 N2testcosq :    5.1538692787289619E-005
 N2testsinq :    1.8646474927663803E-005
 N2testcos :    4.7408615921895603E-010
 N2testsin :    1.4315881813331544E-011
 N2testcosd :    5.6431872508255765E-009
 N2testsind :    4.9831896831165068E-008
 N2testcosq :    8.7266613263636827E-005
 N2testsinq :    1.0204501450061798E-005
 N2testcos :    3.6101988065695423E-010
 N2testsin :    1.2185918940588181E-011
 N2testcosd :    1.2470607657633082E-008
 N2testsind :    1.0254018434352474E-007
 N2testcosq :    9.0693938545882702E-005
 N2testsinq :    5.5698910728096962E-006
 N2testcos :    4.6362189087822969E-010
 N2testsin :    1.2926174020044812E-011
 N2testcosd :    8.0482038811169332E-009
 N2testsind :    5.0515723160060588E-008
 N2testcosq :    8.7619395344518125E-005
 N2testsinq :    1.0719806596171111E-005
 N2testcos :    1.4660550551326423E-010
 N2testsin :    1.5598078384471137E-011
 N2testcosd :    6.9408088165801018E-009
 N2testsind :    3.0448120469372952E-008
 N2testcosq :    3.5162316635251045E-005
 N2testsinq :    1.1465049465186894E-004
 N2testcos :    1.1201334304544730E-010
 N2testsin :    9.7788999120496101E-012
 N2testcosd :    7.7888557825644966E-009
 N2testsind :    8.1910229710047133E-009
 N2testcosq :    2.4095097614917904E-005
 N2testsinq :    8.5001811385154724E-006
 N2testcos :    1.2010470396006667E-010
 N2testsin :    2.8448798872204861E-011
 N2testcosd :    1.4701186046295334E-008
 N2testsind :    1.7967465737456223E-008
 N2testcosq :    3.6661047488451004E-005
 N2testsinq :    2.6283320039510727E-005
 N2testcos :    1.0644096715139995E-010
 N2testsin :    1.2593037723718226E-011
 N2testcosd :    1.2838086149713490E-008
 N2testsind :    2.0444986148504540E-008
 N2testcosq :    3.9345657569356263E-005
 N2testsinq :    3.2631389331072569E-005
 N2testcos :    1.5785361906495154E-010
 N2testsin :    9.8613339716280279E-012
 N2testcosd :    5.3247219966578996E-009
 N2testsind :    2.0058081418028451E-008
 N2testcosq :    3.7137651816010475E-005
 N2testsinq :    2.5635788915678859E-005
 N2testcos :    1.3717305069604890E-010
 N2testsin :    1.6918022538447985E-011
 N2testcosd :    6.9109091782593168E-009
 N2testsind :    1.6192331031561480E-008
 N2testcosq :    4.0030339732766151E-005
 N2testsinq :    9.4354036264121532E-006
 N2testcos :    1.2053408271484045E-010
 N2testsin :    1.3966827694389394E-011
 N2testcosd :    2.8390161332936259E-009
 N2testsind :    1.9645909787868732E-008
 N2testcosq :    2.2947991965338588E-005
 N2testsinq :    1.4124962035566568E-005
 N2testcos :    1.2349221645280295E-010
 N2testsin :    1.2318979170089506E-011
 N2testcosd :    4.5205297283246182E-009
 N2testsind :    8.5221273593560909E-008
 N2testcosq :    2.3175743990577757E-005
 N2testsinq :    1.8985185306519270E-005
 N2testcos :    4.2791398202624009E-010
 N2testsin :    3.4090841261047444E-011
 N2testcosd :    6.8307031142467167E-009
[...]
    ?  x    ?  x    ?                                        5707818      49.77%
   ??  x    ?  x    ?                                        3523224      30.72%
   ??  x   ??  x   ??                                        1887758      16.46%
    ?  x    ?  x   ??                                         349968       3.05%
 -------------------------------------------------------------------------------

 -------------------------------------------------------------------------------
 -                                                                             -
 -                                GRID STATISTICS                              -
 -                                                                             -
 -------------------------------------------------------------------------------
 LP    KERNEL             BACKEND                              COUNT     PERCENT
 0     integrate general  CPU                                  28162      36.34%
 0     collocate general  CPU                                  26884      34.69%
 1     integrate general  CPU                                  10560      13.63%
 1     collocate general  CPU                                  10080      13.01%
 2     integrate general  CPU                                    924       1.19%
 2     collocate general  CPU                                    882       1.14%
 -------------------------------------------------------------------------------

 MEMORY| Estimated peak process memory [MiB]                                1953

 -------------------------------------------------------------------------------
 -                                                                             -
 -                         MESSAGE PASSING PERFORMANCE                         -
 -                                                                             -
 -------------------------------------------------------------------------------

 ROUTINE             CALLS      AVE VOLUME [Bytes]
 MP_Group           821186
 MP_Bcast           855088                    194.
 MP_Allreduce      5196804                   3263.
 MP_Sync           6593478
 MP_Alltoall       1335312                    199.
 MP_SendRecv         21590                   6499.
 MP_ISendRecv        22479                   6414.
 MP_Wait            546361
 MP_comm_split      477166
 MP_ISend          3267062                    688.
 MP_IRecv           498766                    183.
 -------------------------------------------------------------------------------


 -------------------------------------------------------------------------------
 -                                                                             -
 -                           R E F E R E N C E S                               -
 -                                                                             -
 -------------------------------------------------------------------------------
 
 CP2K version 2024.2 (Development Version), the CP2K developers group (2024).
 CP2K is freely available from https://www.cp2k.org/ .
 
 M. Graml, K. Zollner, D. Hernangmez-Prez, P. E. Faria Junior, J. Wilhelm.
 J. Chem. Theory Comput. 20, 2202-2208 (2024).
 Low-scaling GW algorithm applied to twisted transition-metal dichalcogenide 
 heterobilayers.
 https://doi.org/10.1021/acs.jctc.3c01230

 T. D. Kuehne, M. Iannuzzi, M. Del Ben, V. V. Rybkin, P. Seewald, F. Stein, T. 
 Laino, R. Z. Khaliullin, O. Schuett, F. Schiffmann, D. Golze, J. Wilhelm, S. 
 Chulkov, M. H. Bani-Hashemian, V. Weber, U. Borstnik, M. Taillefumier, A. S. 
 Jakobovits, A. Lazzaro, H. Pabst, T. Mueller, R. Schade, M. Guidon, S. 
 Andermatt, N. Holmberg, G. K. Schenter, A. Hehn, A. Bussy, F. Belleflamme, G. 
 Tabacchi, A. Gloess, M. Lass, I. Bethune, C. J. Mundy, C. Plessl, M. Watkins, 
 J. VandeVondele, M. Krack, J. Hutter.
 J. Chem. Phys. 152, 194103 (2020).
 CP2K: An electronic structure and molecular dynamics software package - 
 Quickstep: Efficient and accurate electronic structure calculations.
 https://doi.org/10.1063/5.0007045

 A. Togo, I. Tanaka.
 arXiv, 1808.01590 (2018).
 Spglib : a software library for crystal symmetry search.

 O. Schuett, P. Messmer, J. Hutter, J. VandeVondele.
 Electronic Structure Calculations on Graphics Processing Units, 173-190 (2016).
 GPU-Accelerated Sparse Matrix-Matrix Multiplication for Linear Scaling Density 
 Functional Theory.
 https://doi.org/10.1002/9781118670712.ch8

 A. Heinecke, G. Henry, M. Hutchinson, H. Pabst.
 Proceedings of Intl. Supercomputing Conference, 981-991 (2016).
 LIBXSMM: Accelerating Small Matrix Multiplications by Runtime Code Generation.
 https://doi.org/10.1109/SC.2016.83

 J. Hutter, M. Iannuzzi, F. Schiffmann, J. VandeVondele.
 WIREs Comput Mol Sci. 4, 15-25 (2014).
 CP2K: atomistic simulations of condensed matter systems.
 https://doi.org/10.1002/wcms.1159

 U. Borstnik, J. VandeVondele, V. Weber, J. Hutter.
 Parallel Comput. 40, 47-58 (2014).
 Sparse matrix multiplication: The distributed block-compressed sparse row 
 library.
 https://doi.org/10.1016/j.parco.2014.03.012

 A. Marek, V. Blum, R. Johanni, V. Havu, B. Lang, T. Auckenthaler, A. Heinecke, 
 H. Bungartz, H. Lederer.
 J. Phys. Condens. Matter 26, 213201 (2014).
 The ELPA library: scalable parallel eigenvalue solutions for electronic 
 structure theory and computational science.
 https://doi.org/10.1088/0953-8984/26/21/213201

 J. VandeVondele, M. Krack, F. Mohamed, M. Parrinello, T. Chassaing, J. Hutter.
 Comput. Phys. Commun. 167, 103-128 (2005).
 QUICKSTEP: Fast and accurate density functional calculations using a mixed 
 Gaussian and plane waves approach.
 https://doi.org/10.1016/j.cpc.2004.12.014

 M. Krack.
 Theor. Chem. Acc. 114, 145-152 (2005).
 Pseudopotentials for H to Kr optimized for gradient-corrected 
 exchange-correlation functionals.
 https://doi.org/10.1007/s00214-005-0655-y

 M. Frigo, S. G. Johnson.
 Proc. IEEE 93, 216-231 (2005).
 The design and implementation of FFTW3.
 https://doi.org/10.1109/JPROC.2004.840301

 C. Hartwigsen, S. Goedecker, J. Hutter.
 Phys. Rev. B 58, 3641-3662 (1998).
 Relativistic separable dual-space Gaussian pseudopotentials from H to Rn.
 https://doi.org/10.1103/PhysRevB.58.3641

 G. Lippert, J. Hutter, M. Parrinello.
 Mol. Phys. 92, 477-487 (1997).
 A hybrid Gaussian and plane wave density functional scheme.
 https://doi.org/10.1080/002689797170220

 S. Goedecker, M. Teter, J. Hutter.
 Phys. Rev. B 54, 1703-1710 (1996).
 Separable dual-space Gaussian pseudopotentials.
 https://doi.org/10.1103/PhysRevB.54.1703


 -------------------------------------------------------------------------------
 -                                                                             -
 -                                T I M I N G                                  -
 -                                                                             -
 -------------------------------------------------------------------------------
 SUBROUTINE                       CALLS  ASD         SELF TIME        TOTAL TIME
                                MAXIMUM       AVERAGE  MAXIMUM  AVERAGE  MAXIMUM
 CP2K                                 1  1.0     0.24     0.35 12072.04 12072.06
 qs_energies                          1  2.0     0.01     0.01 12071.15 12071.21
 qs_energies_properties               1  3.0     0.00     0.00 12023.47 12023.54
 post_scf_bandstructure               1  4.0     0.00     0.00 12023.47 12023.54
 gw                                   1  5.0     0.00     0.00 12018.33 12018.57
 gw_calc_small_cell_full_kp           1  6.0     0.00     0.01 12013.88 12014.11
 compute_W_real_space                 1  7.0     0.94     0.95 11707.20 11707.22
 compute_Minv_and_Vsqrt               1  8.0     0.01     0.02 11646.43 11646.45
 build_2c_coulomb_matrix_kp_sma       2  9.0  8088.93  8426.51 11314.16 11645.01
 build_2c_coulomb_matrix_kp_sma 2359296 10.0  2754.05  2785.69  2754.05  2785.69
 copy_dbcsr_to_fm                 88636  8.1     0.72     0.74   386.01   826.92
 mp_alltoall_i22                 295707 10.1   363.05   816.52   363.05   816.52
 dbcsr_desymmetrize_deep         133830  8.5     1.75     1.85   350.92   793.60
 get_V_tr_R                          34  9.0     0.03     0.05   342.57   784.37
 mp_sync                        6593478 10.4   399.50   455.00   399.50   455.00
 add_V_L                        2359296 10.0    18.15   300.36    18.15   300.36
 mp_sum_dm                      2359336 10.0   141.29   161.61   141.29   161.61
 compute_Sigma_c                      1  7.0     0.00     0.00   147.00   147.00
 dbt_total                      1811697  9.9     1.37     3.78    43.42   125.51
 compute_chi                          1  7.0     0.01     0.01   115.89   115.91
 dbt_contract                    904463 10.6     1.18     3.48    31.30    94.29
 dbt_tas_multiply                144266 12.9     0.07     0.21    26.41    81.28
 dbt_tas_total                   144266 13.9     3.01     9.49    26.36    81.13
 G_occ_vir                          121  8.0     0.12     0.15    79.29    79.55
 dbcsr_complete_redistribute     161877  9.7     4.34     5.40    60.29    73.10
 fm_to_local_tensor               52136  9.0     0.49     0.51    51.05    62.13
 contract_to_Sigma                  305  8.0     1.93     2.64    23.03    61.78
 parallel_gemm_cfm               129362  9.0     0.12     0.14    40.50    54.67
 parallel_gemm_cfm_cosma         129362 10.0    40.39    54.52    40.39    54.52
 scf_env_do_scf                       1  3.0     0.00     0.00    47.50    47.50
 scf_env_do_scf_inner_loop           41  4.0     0.00     0.00    47.49    47.50
 qs_scf_new_mos_kp                   41  5.0     0.00     0.00    45.99    46.00
 do_general_diag_kp                  41  6.0     0.12     0.13    45.99    46.00
 dbt_tas_estimate_result_nze      72133 13.4     0.64     1.98    12.91    39.63
 compute_QP_energies                  1  7.0     0.02     0.02    37.63    37.63
 copy_fm_to_dbcsr                 73241  9.4     0.21     0.22    23.58    37.32
 trafo_to_k_and_nn                32635  8.0     0.12     0.15    36.73    36.74
 contract_to_Sigma_3c_x_G        343125  9.0     0.22     0.57    15.19    36.16
 contract_M_occ_vir_to_chi          150  8.0     3.82     5.60    12.36    31.25
 dbt_copy                        915012 11.1     1.30     3.11    10.54    26.81
 local_dbt_to_global_fm              91  8.0     0.06     0.07    26.43    26.43
 G_times_3c                        4500  8.0     0.40     0.70    11.73    26.20
 add_ikp_to_rs                  *******  9.6    22.02    23.01    22.02    23.01
 contract_W                         155  8.0     0.29     0.53    11.52    22.55
 contract_to_Sigma_contract        4575  9.0     0.47     0.97     4.71    21.97
 reshape_mm_small                144266 14.9     3.05     9.43     7.31    21.40
 trafo_rs_to_ikp                  37112  8.0     5.18     5.39    20.88    21.36
 add_rs_to_ikp                  *******  9.5    20.72    21.33    20.72    21.33
 mp_sum_dv                        34815  8.9     8.88    20.66     8.88    20.66
 fm_add_ikp_to_rs                 61952  9.0     8.28     8.46    18.28    18.80
 global_matrix_to_local_matrix    52136 10.0     0.78     0.94    17.60    18.69
 add_ikp_to_all_rs                34684  8.0     4.78     4.86    16.82    17.22
 mp_cart_sub                     177351 10.1    16.99    17.02    16.99    17.02
 mp_cart_create                  909858 14.5    12.16    15.43    12.85    16.92
 get_t_3c_int                    501424  9.6     0.62     1.49     7.19    16.76
 dbt_tas_create_split            477162 15.2     0.27     0.66     6.65    16.71
 dbt_tas_create_split_rows_or_c  477162 16.2     0.74     1.89     6.37    16.05
 reshape_mm_compatible           144266 14.9     1.23     3.80     5.06    15.34
 dbt_tas_distribution_new        423926 14.2     4.36     8.09     8.01    15.15
 dbt_permute_index               682215 12.1     4.15    11.17     4.55    12.27
 dbt_create_matrix                52136 10.0     0.56     0.60    10.71    11.16
 mult_W_with_Minv                    30  8.0     0.01     0.01    10.68    10.69
 dbt_reshape                     473594 12.0     2.41     6.39     3.96    10.48
 fm_trafo_rs_to_ikp               32635  9.0     4.34     4.63     9.36     9.82
 fm_MWM_R_t_to_local_tensor_W_R      30  8.0     0.01     0.01     9.82     9.82
 change_split                    200843 15.4     0.41     1.32     2.94     9.54
 dbcsr_finalize                  641596 11.1     1.30     1.65     5.80     9.46
 kpoint_density_transform            41  7.0     0.04     0.04     9.43     9.44
 cp_fm_start_copy_general         62976  7.3     0.39     0.66     9.15     9.39
 local_dbt_to_global_mat          31213  9.0     0.13     0.13     7.44     8.91
 add_R                          6465465  9.2     3.75     5.03     6.41     8.59
 dbt_create_template             392794  9.0     8.04     8.44     8.04     8.44
 dbt_distribution_new_expert     119838 11.6     1.74     1.92     7.33     8.12
 power                            72700  8.0     7.85     8.08     7.85     8.08
 dbt_create_3c_R1_R2                 62  8.0     0.39     0.41     7.55     7.93
 mp_allgather_i                  125952  8.3     6.65     7.22     6.65     7.22
 dbt_tas_replicate               144266 14.9     0.95     2.38     2.59     7.21
 local_matrix_to_global_matrix    31213 10.0     0.08     0.08     5.81     7.18
 dbt_tas_dbm                     144266 14.9     0.06     0.19     2.14     6.73
 dbm_multiply                    144266 16.9     2.00     6.29     2.00     6.29
 dbt_tas_create_new              580406 14.5     2.53     6.16     2.53     6.16
 compute_Sigma_x                      1  7.0     0.00     0.00     6.05     6.06
 dbcsr_filter_anytype            235694 11.0     0.68     0.69     2.54     5.71
 send_data                        52136 11.0     0.08     0.08     4.64     5.68
 mp_waitall_1                    483935 11.3     4.54     5.62     4.54     5.62
 communicate_buffer               52136 12.0     0.20     1.32     4.56     5.60
 dbt_create_new                   59919 11.1     1.08     1.22     4.83     5.38
 is_cell_in_index_to_cell       9736313  9.8     4.20     5.36     4.20     5.36
 mp_sum_i                        180852 13.7     4.95     5.25     4.95     5.25
 send_sizes_1                     52136 11.0     0.06     0.06     4.92     5.23
 dbt_tas_reshape                 159822 15.6     0.46     1.31     1.80     5.03
 mp_alltoall_i                  1334628 13.6     4.04     4.85     4.04     4.85
 dbt_align_index                 216399 11.4     0.14     0.43     1.51     4.53
 create_and_init_bs_env_for_gw        1  6.0     0.00     0.01     4.45     4.47
 mp_comm_dup                     405033 17.4     1.44     3.61     1.74     4.37
 create_and_init_bs_env               1  5.0     0.00     0.00     4.12     4.12
 compute_cfm_mo_coeff_kp_and_ei       1  6.0     0.00     0.00     4.12     4.12
 dbt_tas_reserve_blocks_index   1274086 14.9     0.77     1.83     1.70     4.05
 get_data                         52136 11.0     3.10     3.76     3.26     3.92
 mp_comm_free                   1969440 13.3     2.04     3.85     2.04     3.85
 mp_alltoall_d11v                887121 10.6     1.50     3.82     1.50     3.82
 dbcsr_create_new                526169 10.0     2.24     2.30     3.73     3.82
 dbcsr_merge_all                 245627 11.7     1.31     2.28     1.96     3.72
 dbt_destroy                    1134928 10.0     2.71     3.36     3.01     3.70
 mp_comm_split_direct            477166 17.2     1.22     3.12     1.45     3.68
 dbcsr_work_create               379457 10.2     1.61     1.98     2.79     3.48
 dbt_reserve_blocks_index_array  606464 13.0     0.26     0.75     1.16     3.37
 convert_to_new_pgrid            432798 14.9     0.74     2.29     1.07     3.35
 rskp_transform                   22597  7.1     0.06     3.24     0.06     3.24
 fm_to_local_array                  934  8.1     0.76     0.81     3.13     3.22
 dbcsr_data_release             6182875 11.7     2.57     3.08     2.57     3.08
 dbcsr_data_new                 3787633 11.1     2.59     2.95     2.59     2.95
 dbt_reserve_blocks_index        661450 13.5     0.41     0.99     1.20     2.92
 dbt_tas_copy                    308548 12.4     0.61     1.19     1.53     2.90
 set_blocks                       31213 11.0     0.47     0.56     1.51     2.88
 send_sizes_2                     52136 11.0     0.05     0.06     2.38     2.77
 mp_comm_size                   4699672 15.3     1.11     2.76     1.11     2.76
 dbt_remap                         7778 11.0     0.42     0.86     1.36     2.72
 mp_alltoall_i11v                619461 10.4     1.83     2.68     1.83     2.68
 dbt_tas_mm_2                     56704 16.0     0.01     0.08     0.34     2.64
 dbt_tas_reserve_blocks_templat  452814 13.6     0.54     1.16     1.21     2.62
 rsmat_to_kp                       1605  7.3     0.02     0.02     2.55     2.57
 mp_comm_rank                   4699672 15.3     1.02     2.56     1.02     2.56
 dbm_reserve_blocks             1418352 15.9     1.02     2.50     1.02     2.50
 dbcsr_iterator_start           1373832 11.0     1.73     1.79     2.44     2.49
 copy_fm_to_dbcsr_bc              73241 10.4     0.58     0.60     2.25     2.40
 cp_cfm_geeig_canon                 535  7.0     0.00     0.00     2.36     2.37
 dbt_tas_mm_3T                    51950 16.2     0.02     0.05     1.05     2.30
 mp_sum_dm3                        1036  9.0     2.17     2.24     2.17     2.24
 cp_cfm_heevd                      1152  8.0     2.21     2.23     2.21     2.23
 dbcsr_work_destroy_all          379457 11.2     0.86     1.15     1.67     2.20
 mp_cart_get                    3536015 15.3     0.81     2.11     0.81     2.11
 dbt_pgrid_create_expert         119841 12.6     0.36     0.39     1.89     2.06
 destroy_t_2d                        62  8.0     0.29     0.31     1.95     2.06
 fill_buffer                      31213 11.0     1.79     1.95     1.88     2.05
 dbcsr_iterator_stop            1373832 11.0     1.20     1.24     1.85     1.91
 mp_bcast_iv                     251909  8.3     1.62     1.80     1.62     1.80
 dbt_tas_reshape_buffer_obtain   159822 16.6     0.31     0.83     0.59     1.61
 dbt_copy_nocomm                 132870 11.0     0.12     0.56     0.36     1.60
 comm_size                        31213 11.0     0.05     0.06     1.49     1.59
 dbt_tas_mm_1N                    35612 15.5     0.01     0.04     0.66     1.56
 dbcsr_set                       529766 10.5     0.52     0.54     1.37     1.46
 dbt_nd_mp_comm                   59914 11.1     0.11     0.12     1.33     1.44
 dbt_tas_merge                    56704 15.0     0.12     0.97     0.19     1.44
 transform_dmat                   10496  8.0     0.03     1.39     0.03     1.39
 heuristic_RI_regularization          1  7.0     0.00     0.00     1.36     1.36
 dbt_tas_mp_comm                  79911 13.1     0.08     0.23     0.46     1.35
 dbcsr_destroy                   485351  9.7     0.65     0.67     1.29     1.34
 trafo_V_xc_R_to_kp                   1  7.0     0.00     0.00     1.29     1.30
 reshape_mm_template              15556 15.5     0.33     0.65     0.65     1.30
 -------------------------------------------------------------------------------

 The number of warnings for this run is : 0
 
 -------------------------------------------------------------------------------
  **** **** ******  **  PROGRAM ENDED AT                 2024-08-16 16:26:57.394
 ***** ** ***  *** **   PROGRAM RAN ON                                  n2cn0172
 **    ****   ******    PROGRAM RAN BY                                  metdyn02
 ***** **    ** ** **   PROGRAM PROCESS ID                               3596821
  **** **  *******  **  PROGRAM STOPPED IN /scratch/hpc-prf-metdyn/metdyn02_Remi
                                           /01_H2_GW_test/01_1x1x1
