SIRIUS 7.5.2, git hash: https://api.github.com/repos/electronic-structure/SIRIUS/git/ref/tags/v7.5.2
 DBCSR| CPU Multiplication driver                                           XSMM (U)
 DBCSR| Multrec recursion limit                                              512 (U)
 DBCSR| Multiplication stack size                                           1000 (D)
 DBCSR| Maximum elements for images                                    UNLIMITED (U)
 DBCSR| Multiplicative factor virtual images                                   1 (U)
 DBCSR| Use multiplication densification                                       T (D)
 DBCSR| Multiplication size stacks                                             3 (U)
 DBCSR| Use memory pool for CPU allocation                                     F (U)
 DBCSR| Number of 3D layers                                               SINGLE (U)
 DBCSR| Use MPI memory allocation                                              F (U)
 DBCSR| Use RMA algorithm                                                      F (U)
 DBCSR| Use Communication thread                                               T (U)
 DBCSR| Communication thread load                                             30 (D)
 DBCSR| MPI: My process id                                                     0
 DBCSR| MPI: Number of processes                                             128
 DBCSR| OMP: Current number of threads                                        16
 DBCSR| OMP: Max number of threads                                            16
 DBCSR| Split modifier for TAS multiplication algorithm                  1.0E+00 (U)


  **** **** ******  **  PROGRAM STARTED AT               2025-02-02 06:23:26.978
 ***** ** ***  *** **   PROGRAM STARTED ON                             n2lcn0107
 **    ****   ******    PROGRAM STARTED BY                              metdyn02
 ***** **    ** ** **   PROGRAM PROCESS ID                               1759233
  **** **  *******  **  PROGRAM STARTED IN /scratch/hpc-prf-metdyn/metdyn02_Remi
                                           /08_3D/01_Si

 CP2K| version string:                 CP2K version 2025.1 (Development Version)
 CP2K| source code revision number:                                  git:a2ea924
 CP2K| cp2kflags: omp libint fftw3 libxc libgrpp elpa parallel scalapack mpi_f08
 CP2K|             cosma xsmm plumed2 spglib sirius libvori libbqb libvdwxc hdf5
 CP2K| is freely available from                            https://www.cp2k.org/
 CP2K| Program compiled at                          Sat Feb  1 00:09:14 CET 2025
 CP2K| Program compiled on                                              n2login1
 CP2K| Program compiled for                                                local
 CP2K| Data directory path    /opt/software/pc2/EB-SW/software/CP2K/2024.1-foss-
 CP2K| Input file name                                                    GW.inp

 GLOBAL| Force Environment number                                              1
 GLOBAL| Basis set file name            /scratch/hpc-prf-metdyn/metdyn02_Remi/BA
 GLOBAL| Potential file name            /pc2/groups/hpc-prf-metdyn/metdyn02_Remi
 GLOBAL| MM Potential file name                                     MM_POTENTIAL
 GLOBAL| Coordinate file name                                      __STD_INPUT__
 GLOBAL| Method name                                                        CP2K
 GLOBAL| Project name                                                         Si
 GLOBAL| Run type                                                         ENERGY
 GLOBAL| FFT library                                                       FFTW3
 GLOBAL| Diagonalization library                                            ELPA
 GLOBAL| DGEMM library                                                      BLAS
 GLOBAL| Minimum number of eigenvectors for ELPA usage                        16
 GLOBAL| Orthonormality check for eigenvectors                          DISABLED
 GLOBAL| Matrix multiplication library                                     COSMA
 GLOBAL| All-to-all communication in single precision                          F
 GLOBAL| FFTs using library dependent lengths                                  F
 GLOBAL| Grid backend                                                       AUTO
 GLOBAL| Global print level                                               MEDIUM
 GLOBAL| MPI I/O enabled                                                       T
 GLOBAL| Total number of message passing processes                           128
 GLOBAL| Number of threads for this process                                   16
 GLOBAL| This output is from process                                           0
 GLOBAL| OpenMP stack size per thread (OMP_STACKSIZE)                    default
 GLOBAL| CPU model name                          AMD EPYC 7763 64-Core Processor
 GLOBAL| CPUID                                                              1002

 MEMORY| system memory details [Kb]
 MEMORY|                        rank 0           min           max       average
 MEMORY| MemTotal           1056622244    1056622244    1056622248    1056622246
 MEMORY| MemFree            1043826724    1036418628    1046128428    1043039158
 MEMORY| Buffers                 23876         23492        287532        152473
 MEMORY| Cached                5560084       4374900      12704904       6174756
 MEMORY| Slab                  1742456       1271784       2208804       1807386
 MEMORY| SReclaimable           339472        223572        526296        328813
 MEMORY| MemLikelyFree      1049750156    1049043020    1051011224    1049695200


 *** Fundamental physical constants (SI units) ***

 *** Literature: B. J. Mohr and B. N. Taylor,
 ***             CODATA recommended values of the fundamental physical
 ***             constants: 2006, Web Version 5.1
 ***             http://physics.nist.gov/constants

 Speed of light in vacuum [m/s]                             2.99792458000000E+08
 Magnetic constant or permeability of vacuum [N/A**2]       1.25663706143592E-06
 Electric constant or permittivity of vacuum [F/m]          8.85418781762039E-12
 Planck constant (h) [J*s]                                  6.62606896000000E-34
 Planck constant (h-bar) [J*s]                              1.05457162825177E-34
 Elementary charge [C]                                      1.60217648700000E-19
 Electron mass [kg]                                         9.10938215000000E-31
 Electron g factor [ ]                                     -2.00231930436220E+00
 Proton mass [kg]                                           1.67262163700000E-27
 Fine-structure constant                                    7.29735253760000E-03
 Rydberg constant [1/m]                                     1.09737315685270E+07
 Avogadro constant [1/mol]                                  6.02214179000000E+23
 Boltzmann constant [J/K]                                   1.38065040000000E-23
 Atomic mass unit [kg]                                      1.66053878200000E-27
 Bohr radius [m]                                            5.29177208590000E-11

 *** Conversion factors ***

 [u] -> [a.u.]                                              1.82288848426455E+03
 [Angstrom] -> [Bohr] = [a.u.]                              1.88972613288564E+00
 [a.u.] = [Bohr] -> [Angstrom]                              5.29177208590000E-01
 [a.u.] -> [s]                                              2.41888432650478E-17
 [a.u.] -> [fs]                                             2.41888432650478E-02
 [a.u.] -> [J]                                              4.35974393937059E-18
 [a.u.] -> [N]                                              8.23872205491840E-08
 [a.u.] -> [K]                                              3.15774647902944E+05
 [a.u.] -> [kJ/mol]                                         2.62549961709828E+03
 [a.u.] -> [kcal/mol]                                       6.27509468713739E+02
 [a.u.] -> [Pa]                                             2.94210107994716E+13
 [a.u.] -> [bar]                                            2.94210107994716E+08
 [a.u.] -> [atm]                                            2.90362800883016E+08
 [a.u.] -> [eV]                                             2.72113838565563E+01
 [a.u.] -> [Hz]                                             6.57968392072181E+15
 [a.u.] -> [1/cm] (wave numbers)                            2.19474631370540E+05
 [a.u./Bohr**2] -> [1/cm]                                   5.14048714338585E+03
 

 CELL_TOP| Volume [angstrom^3]:                                        40.025752
 CELL_TOP| Vector a [angstrom     2.715     2.715     0.000   |a| =     3.839590
 CELL_TOP| Vector b [angstrom     0.000     2.715     2.715   |b| =     3.839590
 CELL_TOP| Vector c [angstrom     2.715     0.000     2.715   |c| =     3.839590
 CELL_TOP| Angle (b,c), alpha [degree]:                                60.000000
 CELL_TOP| Angle (a,c), beta  [degree]:                                60.000000
 CELL_TOP| Angle (a,b), gamma [degree]:                                60.000000
 CELL_TOP| Numerically orthorhombic:                                          NO
 CELL_TOP| Periodicity                                                       XYZ

 GENERATE|  Preliminary Number of Bonds generated:                             0
 GENERATE|  Achieved consistency in connectivity generation.

 CELL| Volume [angstrom^3]:                                            40.025752
 CELL| Vector a [angstrom]:       2.715     2.715     0.000   |a| =     3.839590
 CELL| Vector b [angstrom]:       0.000     2.715     2.715   |b| =     3.839590
 CELL| Vector c [angstrom]:       2.715     0.000     2.715   |c| =     3.839590
 CELL| Angle (b,c), alpha [degree]:                                    60.000000
 CELL| Angle (a,c), beta  [degree]:                                    60.000000
 CELL| Angle (a,b), gamma [degree]:                                    60.000000
 CELL| Numerically orthorhombic:                                              NO
 CELL| Periodicity                                                           XYZ

 CELL_REF| Volume [angstrom^3]:                                        40.025752
 CELL_REF| Vector a [angstrom     2.715     2.715     0.000   |a| =     3.839590
 CELL_REF| Vector b [angstrom     0.000     2.715     2.715   |b| =     3.839590
 CELL_REF| Vector c [angstrom     2.715     0.000     2.715   |c| =     3.839590
 CELL_REF| Angle (b,c), alpha [degree]:                                60.000000
 CELL_REF| Angle (a,c), beta  [degree]:                                60.000000
 CELL_REF| Angle (a,b), gamma [degree]:                                60.000000
 CELL_REF| Numerically orthorhombic:                                          NO
 CELL_REF| Periodicity                                                       XYZ

 *******************************************************************************
                                    Kpoints
 *******************************************************************************
 BRILLOUIN| K-point scheme                                        Monkhorst-Pack
 BRILLOUIN| K-Point grid                                            16   16   16
 BRILLOUIN| Accuracy in Symmetry determination                      0.100000E-05
 BRILLOUIN| K-Point point group symmetrization                               OFF
 BRILLOUIN| Wavefunction type                                            COMPLEX
 BRILLOUIN| List of Kpoints [2 Pi/Bohr]                                     2048
 BRILLOUIN| Number           Weight            X              Y              Z
 BRILLOUIN|     1           0.00049       -0.46875       -0.46875       -0.46875
 BRILLOUIN|     2           0.00049       -0.46875       -0.46875       -0.40625
 BRILLOUIN|     3           0.00049       -0.46875       -0.46875       -0.34375
 BRILLOUIN|     4           0.00049       -0.46875       -0.46875       -0.28125
 BRILLOUIN|     5           0.00049       -0.46875       -0.46875       -0.21875
 BRILLOUIN|     6           0.00049       -0.46875       -0.46875       -0.15625
 BRILLOUIN|     7           0.00049       -0.46875       -0.46875       -0.09375
 BRILLOUIN|     8           0.00049       -0.46875       -0.46875       -0.03125
 BRILLOUIN|     9           0.00049       -0.46875       -0.46875        0.03125
 BRILLOUIN|    10           0.00049       -0.46875       -0.46875        0.09375
 BRILLOUIN|    11           0.00049       -0.46875       -0.46875        0.15625
 BRILLOUIN|    12           0.00049       -0.46875       -0.46875        0.21875
 BRILLOUIN|    13           0.00049       -0.46875       -0.46875        0.28125
 BRILLOUIN|    14           0.00049       -0.46875       -0.46875        0.34375
 BRILLOUIN|    15           0.00049       -0.46875       -0.46875        0.40625
 BRILLOUIN|    16           0.00049       -0.46875       -0.46875        0.46875
 BRILLOUIN|    17           0.00049       -0.46875       -0.40625       -0.46875
 BRILLOUIN|    18           0.00049       -0.46875       -0.40625       -0.40625
 BRILLOUIN|    19           0.00049       -0.46875       -0.40625       -0.34375
 BRILLOUIN|    20           0.00049       -0.46875       -0.40625       -0.28125
 BRILLOUIN|    21           0.00049       -0.46875       -0.40625       -0.21875
 BRILLOUIN|    22           0.00049       -0.46875       -0.40625       -0.15625
 BRILLOUIN|    23           0.00049       -0.46875       -0.40625       -0.09375
 BRILLOUIN|    24           0.00049       -0.46875       -0.40625       -0.03125
 BRILLOUIN|    25           0.00049       -0.46875       -0.40625        0.03125
 BRILLOUIN|    26           0.00049       -0.46875       -0.40625        0.09375
 BRILLOUIN|    27           0.00049       -0.46875       -0.40625        0.15625
 BRILLOUIN|    28           0.00049       -0.46875       -0.40625        0.21875
 BRILLOUIN|    29           0.00049       -0.46875       -0.40625        0.28125
 BRILLOUIN|    30           0.00049       -0.46875       -0.40625        0.34375
 BRILLOUIN|    31           0.00049       -0.46875       -0.40625        0.40625
 BRILLOUIN|    32           0.00049       -0.46875       -0.40625        0.46875
 BRILLOUIN|    33           0.00049       -0.46875       -0.34375       -0.46875
 BRILLOUIN|    34           0.00049       -0.46875       -0.34375       -0.40625
 BRILLOUIN|    35           0.00049       -0.46875       -0.34375       -0.34375
 BRILLOUIN|    36           0.00049       -0.46875       -0.34375       -0.28125
 BRILLOUIN|    37           0.00049       -0.46875       -0.34375       -0.21875
 BRILLOUIN|    38           0.00049       -0.46875       -0.34375       -0.15625
 BRILLOUIN|    39           0.00049       -0.46875       -0.34375       -0.09375
 BRILLOUIN|    40           0.00049       -0.46875       -0.34375       -0.03125
 BRILLOUIN|    41           0.00049       -0.46875       -0.34375        0.03125
 BRILLOUIN|    42           0.00049       -0.46875       -0.34375        0.09375
 BRILLOUIN|    43           0.00049       -0.46875       -0.34375        0.15625
 BRILLOUIN|    44           0.00049       -0.46875       -0.34375        0.21875
 BRILLOUIN|    45           0.00049       -0.46875       -0.34375        0.28125
 BRILLOUIN|    46           0.00049       -0.46875       -0.34375        0.34375
 BRILLOUIN|    47           0.00049       -0.46875       -0.34375        0.40625
 BRILLOUIN|    48           0.00049       -0.46875       -0.34375        0.46875
 BRILLOUIN|    49           0.00049       -0.46875       -0.28125       -0.46875
 BRILLOUIN|    50           0.00049       -0.46875       -0.28125       -0.40625
 BRILLOUIN|    51           0.00049       -0.46875       -0.28125       -0.34375
 BRILLOUIN|    52           0.00049       -0.46875       -0.28125       -0.28125
 BRILLOUIN|    53           0.00049       -0.46875       -0.28125       -0.21875
 BRILLOUIN|    54           0.00049       -0.46875       -0.28125       -0.15625
 BRILLOUIN|    55           0.00049       -0.46875       -0.28125       -0.09375
 BRILLOUIN|    56           0.00049       -0.46875       -0.28125       -0.03125
 BRILLOUIN|    57           0.00049       -0.46875       -0.28125        0.03125
 BRILLOUIN|    58           0.00049       -0.46875       -0.28125        0.09375
 BRILLOUIN|    59           0.00049       -0.46875       -0.28125        0.15625
 BRILLOUIN|    60           0.00049       -0.46875       -0.28125        0.21875
 BRILLOUIN|    61           0.00049       -0.46875       -0.28125        0.28125
 BRILLOUIN|    62           0.00049       -0.46875       -0.28125        0.34375
 BRILLOUIN|    63           0.00049       -0.46875       -0.28125        0.40625
 BRILLOUIN|    64           0.00049       -0.46875       -0.28125        0.46875
 BRILLOUIN|    65           0.00049       -0.46875       -0.21875       -0.46875
 BRILLOUIN|    66           0.00049       -0.46875       -0.21875       -0.40625
 BRILLOUIN|    67           0.00049       -0.46875       -0.21875       -0.34375
 BRILLOUIN|    68           0.00049       -0.46875       -0.21875       -0.28125
 BRILLOUIN|    69           0.00049       -0.46875       -0.21875       -0.21875
 BRILLOUIN|    70           0.00049       -0.46875       -0.21875       -0.15625
 BRILLOUIN|    71           0.00049       -0.46875       -0.21875       -0.09375
 BRILLOUIN|    72           0.00049       -0.46875       -0.21875       -0.03125
 BRILLOUIN|    73           0.00049       -0.46875       -0.21875        0.03125
 BRILLOUIN|    74           0.00049       -0.46875       -0.21875        0.09375
 BRILLOUIN|    75           0.00049       -0.46875       -0.21875        0.15625
 BRILLOUIN|    76           0.00049       -0.46875       -0.21875        0.21875
 BRILLOUIN|    77           0.00049       -0.46875       -0.21875        0.28125
 BRILLOUIN|    78           0.00049       -0.46875       -0.21875        0.34375
 BRILLOUIN|    79           0.00049       -0.46875       -0.21875        0.40625
 BRILLOUIN|    80           0.00049       -0.46875       -0.21875        0.46875
 BRILLOUIN|    81           0.00049       -0.46875       -0.15625       -0.46875
 BRILLOUIN|    82           0.00049       -0.46875       -0.15625       -0.40625
 BRILLOUIN|    83           0.00049       -0.46875       -0.15625       -0.34375
 BRILLOUIN|    84           0.00049       -0.46875       -0.15625       -0.28125
 BRILLOUIN|    85           0.00049       -0.46875       -0.15625       -0.21875
 BRILLOUIN|    86           0.00049       -0.46875       -0.15625       -0.15625
 BRILLOUIN|    87           0.00049       -0.46875       -0.15625       -0.09375
 BRILLOUIN|    88           0.00049       -0.46875       -0.15625       -0.03125
 BRILLOUIN|    89           0.00049       -0.46875       -0.15625        0.03125
 BRILLOUIN|    90           0.00049       -0.46875       -0.15625        0.09375
 BRILLOUIN|    91           0.00049       -0.46875       -0.15625        0.15625
 BRILLOUIN|    92           0.00049       -0.46875       -0.15625        0.21875
 BRILLOUIN|    93           0.00049       -0.46875       -0.15625        0.28125
 BRILLOUIN|    94           0.00049       -0.46875       -0.15625        0.34375
 BRILLOUIN|    95           0.00049       -0.46875       -0.15625        0.40625
 BRILLOUIN|    96           0.00049       -0.46875       -0.15625        0.46875
 BRILLOUIN|    97           0.00049       -0.46875       -0.09375       -0.46875
 BRILLOUIN|    98           0.00049       -0.46875       -0.09375       -0.40625
 BRILLOUIN|    99           0.00049       -0.46875       -0.09375       -0.34375
 BRILLOUIN|   100           0.00049       -0.46875       -0.09375       -0.28125
 BRILLOUIN|   101           0.00049       -0.46875       -0.09375       -0.21875
 BRILLOUIN|   102           0.00049       -0.46875       -0.09375       -0.15625
 BRILLOUIN|   103           0.00049       -0.46875       -0.09375       -0.09375
 BRILLOUIN|   104           0.00049       -0.46875       -0.09375       -0.03125
 BRILLOUIN|   105           0.00049       -0.46875       -0.09375        0.03125
 BRILLOUIN|   106           0.00049       -0.46875       -0.09375        0.09375
 BRILLOUIN|   107           0.00049       -0.46875       -0.09375        0.15625
 BRILLOUIN|   108           0.00049       -0.46875       -0.09375        0.21875
 BRILLOUIN|   109           0.00049       -0.46875       -0.09375        0.28125
 BRILLOUIN|   110           0.00049       -0.46875       -0.09375        0.34375
 BRILLOUIN|   111           0.00049       -0.46875       -0.09375        0.40625
 BRILLOUIN|   112           0.00049       -0.46875       -0.09375        0.46875
 BRILLOUIN|   113           0.00049       -0.46875       -0.03125       -0.46875
 BRILLOUIN|   114           0.00049       -0.46875       -0.03125       -0.40625
 BRILLOUIN|   115           0.00049       -0.46875       -0.03125       -0.34375
 BRILLOUIN|   116           0.00049       -0.46875       -0.03125       -0.28125
 BRILLOUIN|   117           0.00049       -0.46875       -0.03125       -0.21875
 BRILLOUIN|   118           0.00049       -0.46875       -0.03125       -0.15625
 BRILLOUIN|   119           0.00049       -0.46875       -0.03125       -0.09375
 BRILLOUIN|   120           0.00049       -0.46875       -0.03125       -0.03125
 BRILLOUIN|   121           0.00049       -0.46875       -0.03125        0.03125
 BRILLOUIN|   122           0.00049       -0.46875       -0.03125        0.09375
 BRILLOUIN|   123           0.00049       -0.46875       -0.03125        0.15625
 BRILLOUIN|   124           0.00049       -0.46875       -0.03125        0.21875
 BRILLOUIN|   125           0.00049       -0.46875       -0.03125        0.28125
 BRILLOUIN|   126           0.00049       -0.46875       -0.03125        0.34375
 BRILLOUIN|   127           0.00049       -0.46875       -0.03125        0.40625
 BRILLOUIN|   128           0.00049       -0.46875       -0.03125        0.46875
 BRILLOUIN|   129           0.00049       -0.46875        0.03125       -0.46875
 BRILLOUIN|   130           0.00049       -0.46875        0.03125       -0.40625
 BRILLOUIN|   131           0.00049       -0.46875        0.03125       -0.34375
 BRILLOUIN|   132           0.00049       -0.46875        0.03125       -0.28125
 BRILLOUIN|   133           0.00049       -0.46875        0.03125       -0.21875
 BRILLOUIN|   134           0.00049       -0.46875        0.03125       -0.15625
 BRILLOUIN|   135           0.00049       -0.46875        0.03125       -0.09375
 BRILLOUIN|   136           0.00049       -0.46875        0.03125       -0.03125
 BRILLOUIN|   137           0.00049       -0.46875        0.03125        0.03125
 BRILLOUIN|   138           0.00049       -0.46875        0.03125        0.09375
 BRILLOUIN|   139           0.00049       -0.46875        0.03125        0.15625
 BRILLOUIN|   140           0.00049       -0.46875        0.03125        0.21875
 BRILLOUIN|   141           0.00049       -0.46875        0.03125        0.28125
 BRILLOUIN|   142           0.00049       -0.46875        0.03125        0.34375
 BRILLOUIN|   143           0.00049       -0.46875        0.03125        0.40625
 BRILLOUIN|   144           0.00049       -0.46875        0.03125        0.46875
 BRILLOUIN|   145           0.00049       -0.46875        0.09375       -0.46875
 BRILLOUIN|   146           0.00049       -0.46875        0.09375       -0.40625
 BRILLOUIN|   147           0.00049       -0.46875        0.09375       -0.34375
 BRILLOUIN|   148           0.00049       -0.46875        0.09375       -0.28125
 BRILLOUIN|   149           0.00049       -0.46875        0.09375       -0.21875
 BRILLOUIN|   150           0.00049       -0.46875        0.09375       -0.15625
 BRILLOUIN|   151           0.00049       -0.46875        0.09375       -0.09375
 BRILLOUIN|   152           0.00049       -0.46875        0.09375       -0.03125
 BRILLOUIN|   153           0.00049       -0.46875        0.09375        0.03125
 BRILLOUIN|   154           0.00049       -0.46875        0.09375        0.09375
 BRILLOUIN|   155           0.00049       -0.46875        0.09375        0.15625
 BRILLOUIN|   156           0.00049       -0.46875        0.09375        0.21875
 BRILLOUIN|   157           0.00049       -0.46875        0.09375        0.28125
 BRILLOUIN|   158           0.00049       -0.46875        0.09375        0.34375
 BRILLOUIN|   159           0.00049       -0.46875        0.09375        0.40625
 BRILLOUIN|   160           0.00049       -0.46875        0.09375        0.46875
 BRILLOUIN|   161           0.00049       -0.46875        0.15625       -0.46875
 BRILLOUIN|   162           0.00049       -0.46875        0.15625       -0.40625
 BRILLOUIN|   163           0.00049       -0.46875        0.15625       -0.34375
 BRILLOUIN|   164           0.00049       -0.46875        0.15625       -0.28125
 BRILLOUIN|   165           0.00049       -0.46875        0.15625       -0.21875
 BRILLOUIN|   166           0.00049       -0.46875        0.15625       -0.15625
 BRILLOUIN|   167           0.00049       -0.46875        0.15625       -0.09375
 BRILLOUIN|   168           0.00049       -0.46875        0.15625       -0.03125
 BRILLOUIN|   169           0.00049       -0.46875        0.15625        0.03125
 BRILLOUIN|   170           0.00049       -0.46875        0.15625        0.09375
 BRILLOUIN|   171           0.00049       -0.46875        0.15625        0.15625
 BRILLOUIN|   172           0.00049       -0.46875        0.15625        0.21875
 BRILLOUIN|   173           0.00049       -0.46875        0.15625        0.28125
 BRILLOUIN|   174           0.00049       -0.46875        0.15625        0.34375
 BRILLOUIN|   175           0.00049       -0.46875        0.15625        0.40625
 BRILLOUIN|   176           0.00049       -0.46875        0.15625        0.46875
 BRILLOUIN|   177           0.00049       -0.46875        0.21875       -0.46875
 BRILLOUIN|   178           0.00049       -0.46875        0.21875       -0.40625
 BRILLOUIN|   179           0.00049       -0.46875        0.21875       -0.34375
 BRILLOUIN|   180           0.00049       -0.46875        0.21875       -0.28125
 BRILLOUIN|   181           0.00049       -0.46875        0.21875       -0.21875
 BRILLOUIN|   182           0.00049       -0.46875        0.21875       -0.15625
 BRILLOUIN|   183           0.00049       -0.46875        0.21875       -0.09375
 BRILLOUIN|   184           0.00049       -0.46875        0.21875       -0.03125
 BRILLOUIN|   185           0.00049       -0.46875        0.21875        0.03125
 BRILLOUIN|   186           0.00049       -0.46875        0.21875        0.09375
 BRILLOUIN|   187           0.00049       -0.46875        0.21875        0.15625
 BRILLOUIN|   188           0.00049       -0.46875        0.21875        0.21875
 BRILLOUIN|   189           0.00049       -0.46875        0.21875        0.28125
 BRILLOUIN|   190           0.00049       -0.46875        0.21875        0.34375
 BRILLOUIN|   191           0.00049       -0.46875        0.21875        0.40625
 BRILLOUIN|   192           0.00049       -0.46875        0.21875        0.46875
 BRILLOUIN|   193           0.00049       -0.46875        0.28125       -0.46875
 BRILLOUIN|   194           0.00049       -0.46875        0.28125       -0.40625
 BRILLOUIN|   195           0.00049       -0.46875        0.28125       -0.34375
 BRILLOUIN|   196           0.00049       -0.46875        0.28125       -0.28125
 BRILLOUIN|   197           0.00049       -0.46875        0.28125       -0.21875
 BRILLOUIN|   198           0.00049       -0.46875        0.28125       -0.15625
 BRILLOUIN|   199           0.00049       -0.46875        0.28125       -0.09375
 BRILLOUIN|   200           0.00049       -0.46875        0.28125       -0.03125
 BRILLOUIN|   201           0.00049       -0.46875        0.28125        0.03125
 BRILLOUIN|   202           0.00049       -0.46875        0.28125        0.09375
 BRILLOUIN|   203           0.00049       -0.46875        0.28125        0.15625
 BRILLOUIN|   204           0.00049       -0.46875        0.28125        0.21875
 BRILLOUIN|   205           0.00049       -0.46875        0.28125        0.28125
 BRILLOUIN|   206           0.00049       -0.46875        0.28125        0.34375
 BRILLOUIN|   207           0.00049       -0.46875        0.28125        0.40625
 BRILLOUIN|   208           0.00049       -0.46875        0.28125        0.46875
 BRILLOUIN|   209           0.00049       -0.46875        0.34375       -0.46875
 BRILLOUIN|   210           0.00049       -0.46875        0.34375       -0.40625
 BRILLOUIN|   211           0.00049       -0.46875        0.34375       -0.34375
 BRILLOUIN|   212           0.00049       -0.46875        0.34375       -0.28125
 BRILLOUIN|   213           0.00049       -0.46875        0.34375       -0.21875
 BRILLOUIN|   214           0.00049       -0.46875        0.34375       -0.15625
 BRILLOUIN|   215           0.00049       -0.46875        0.34375       -0.09375
 BRILLOUIN|   216           0.00049       -0.46875        0.34375       -0.03125
 BRILLOUIN|   217           0.00049       -0.46875        0.34375        0.03125
 BRILLOUIN|   218           0.00049       -0.46875        0.34375        0.09375
 BRILLOUIN|   219           0.00049       -0.46875        0.34375        0.15625
 BRILLOUIN|   220           0.00049       -0.46875        0.34375        0.21875
 BRILLOUIN|   221           0.00049       -0.46875        0.34375        0.28125
 BRILLOUIN|   222           0.00049       -0.46875        0.34375        0.34375
 BRILLOUIN|   223           0.00049       -0.46875        0.34375        0.40625
 BRILLOUIN|   224           0.00049       -0.46875        0.34375        0.46875
 BRILLOUIN|   225           0.00049       -0.46875        0.40625       -0.46875
 BRILLOUIN|   226           0.00049       -0.46875        0.40625       -0.40625
 BRILLOUIN|   227           0.00049       -0.46875        0.40625       -0.34375
 BRILLOUIN|   228           0.00049       -0.46875        0.40625       -0.28125
 BRILLOUIN|   229           0.00049       -0.46875        0.40625       -0.21875
 BRILLOUIN|   230           0.00049       -0.46875        0.40625       -0.15625
 BRILLOUIN|   231           0.00049       -0.46875        0.40625       -0.09375
 BRILLOUIN|   232           0.00049       -0.46875        0.40625       -0.03125
 BRILLOUIN|   233           0.00049       -0.46875        0.40625        0.03125
 BRILLOUIN|   234           0.00049       -0.46875        0.40625        0.09375
 BRILLOUIN|   235           0.00049       -0.46875        0.40625        0.15625
 BRILLOUIN|   236           0.00049       -0.46875        0.40625        0.21875
 BRILLOUIN|   237           0.00049       -0.46875        0.40625        0.28125
 BRILLOUIN|   238           0.00049       -0.46875        0.40625        0.34375
 BRILLOUIN|   239           0.00049       -0.46875        0.40625        0.40625
 BRILLOUIN|   240           0.00049       -0.46875        0.40625        0.46875
 BRILLOUIN|   241           0.00049       -0.46875        0.46875       -0.46875
 BRILLOUIN|   242           0.00049       -0.46875        0.46875       -0.40625
 BRILLOUIN|   243           0.00049       -0.46875        0.46875       -0.34375
 BRILLOUIN|   244           0.00049       -0.46875        0.46875       -0.28125
 BRILLOUIN|   245           0.00049       -0.46875        0.46875       -0.21875
 BRILLOUIN|   246           0.00049       -0.46875        0.46875       -0.15625
 BRILLOUIN|   247           0.00049       -0.46875        0.46875       -0.09375
 BRILLOUIN|   248           0.00049       -0.46875        0.46875       -0.03125
 BRILLOUIN|   249           0.00049       -0.46875        0.46875        0.03125
 BRILLOUIN|   250           0.00049       -0.46875        0.46875        0.09375
 BRILLOUIN|   251           0.00049       -0.46875        0.46875        0.15625
 BRILLOUIN|   252           0.00049       -0.46875        0.46875        0.21875
 BRILLOUIN|   253           0.00049       -0.46875        0.46875        0.28125
 BRILLOUIN|   254           0.00049       -0.46875        0.46875        0.34375
 BRILLOUIN|   255           0.00049       -0.46875        0.46875        0.40625
 BRILLOUIN|   256           0.00049       -0.46875        0.46875        0.46875
 BRILLOUIN|   257           0.00049       -0.40625       -0.46875       -0.46875
 BRILLOUIN|   258           0.00049       -0.40625       -0.46875       -0.40625
 BRILLOUIN|   259           0.00049       -0.40625       -0.46875       -0.34375
 BRILLOUIN|   260           0.00049       -0.40625       -0.46875       -0.28125
 BRILLOUIN|   261           0.00049       -0.40625       -0.46875       -0.21875
 BRILLOUIN|   262           0.00049       -0.40625       -0.46875       -0.15625
 BRILLOUIN|   263           0.00049       -0.40625       -0.46875       -0.09375
 BRILLOUIN|   264           0.00049       -0.40625       -0.46875       -0.03125
 BRILLOUIN|   265           0.00049       -0.40625       -0.46875        0.03125
 BRILLOUIN|   266           0.00049       -0.40625       -0.46875        0.09375
 BRILLOUIN|   267           0.00049       -0.40625       -0.46875        0.15625
 BRILLOUIN|   268           0.00049       -0.40625       -0.46875        0.21875
 BRILLOUIN|   269           0.00049       -0.40625       -0.46875        0.28125
 BRILLOUIN|   270           0.00049       -0.40625       -0.46875        0.34375
 BRILLOUIN|   271           0.00049       -0.40625       -0.46875        0.40625
 BRILLOUIN|   272           0.00049       -0.40625       -0.46875        0.46875
 BRILLOUIN|   273           0.00049       -0.40625       -0.40625       -0.46875
 BRILLOUIN|   274           0.00049       -0.40625       -0.40625       -0.40625
 BRILLOUIN|   275           0.00049       -0.40625       -0.40625       -0.34375
 BRILLOUIN|   276           0.00049       -0.40625       -0.40625       -0.28125
 BRILLOUIN|   277           0.00049       -0.40625       -0.40625       -0.21875
 BRILLOUIN|   278           0.00049       -0.40625       -0.40625       -0.15625
 BRILLOUIN|   279           0.00049       -0.40625       -0.40625       -0.09375
 BRILLOUIN|   280           0.00049       -0.40625       -0.40625       -0.03125
 BRILLOUIN|   281           0.00049       -0.40625       -0.40625        0.03125
 BRILLOUIN|   282           0.00049       -0.40625       -0.40625        0.09375
 BRILLOUIN|   283           0.00049       -0.40625       -0.40625        0.15625
 BRILLOUIN|   284           0.00049       -0.40625       -0.40625        0.21875
 BRILLOUIN|   285           0.00049       -0.40625       -0.40625        0.28125
 BRILLOUIN|   286           0.00049       -0.40625       -0.40625        0.34375
 BRILLOUIN|   287           0.00049       -0.40625       -0.40625        0.40625
 BRILLOUIN|   288           0.00049       -0.40625       -0.40625        0.46875
 BRILLOUIN|   289           0.00049       -0.40625       -0.34375       -0.46875
 BRILLOUIN|   290           0.00049       -0.40625       -0.34375       -0.40625
 BRILLOUIN|   291           0.00049       -0.40625       -0.34375       -0.34375
 BRILLOUIN|   292           0.00049       -0.40625       -0.34375       -0.28125
 BRILLOUIN|   293           0.00049       -0.40625       -0.34375       -0.21875
 BRILLOUIN|   294           0.00049       -0.40625       -0.34375       -0.15625
 BRILLOUIN|   295           0.00049       -0.40625       -0.34375       -0.09375
 BRILLOUIN|   296           0.00049       -0.40625       -0.34375       -0.03125
 BRILLOUIN|   297           0.00049       -0.40625       -0.34375        0.03125
 BRILLOUIN|   298           0.00049       -0.40625       -0.34375        0.09375
 BRILLOUIN|   299           0.00049       -0.40625       -0.34375        0.15625
 BRILLOUIN|   300           0.00049       -0.40625       -0.34375        0.21875
 BRILLOUIN|   301           0.00049       -0.40625       -0.34375        0.28125
 BRILLOUIN|   302           0.00049       -0.40625       -0.34375        0.34375
 BRILLOUIN|   303           0.00049       -0.40625       -0.34375        0.40625
 BRILLOUIN|   304           0.00049       -0.40625       -0.34375        0.46875
 BRILLOUIN|   305           0.00049       -0.40625       -0.28125       -0.46875
 BRILLOUIN|   306           0.00049       -0.40625       -0.28125       -0.40625
 BRILLOUIN|   307           0.00049       -0.40625       -0.28125       -0.34375
 BRILLOUIN|   308           0.00049       -0.40625       -0.28125       -0.28125
 BRILLOUIN|   309           0.00049       -0.40625       -0.28125       -0.21875
 BRILLOUIN|   310           0.00049       -0.40625       -0.28125       -0.15625
 BRILLOUIN|   311           0.00049       -0.40625       -0.28125       -0.09375
 BRILLOUIN|   312           0.00049       -0.40625       -0.28125       -0.03125
 BRILLOUIN|   313           0.00049       -0.40625       -0.28125        0.03125
 BRILLOUIN|   314           0.00049       -0.40625       -0.28125        0.09375
 BRILLOUIN|   315           0.00049       -0.40625       -0.28125        0.15625
 BRILLOUIN|   316           0.00049       -0.40625       -0.28125        0.21875
 BRILLOUIN|   317           0.00049       -0.40625       -0.28125        0.28125
 BRILLOUIN|   318           0.00049       -0.40625       -0.28125        0.34375
 BRILLOUIN|   319           0.00049       -0.40625       -0.28125        0.40625
 BRILLOUIN|   320           0.00049       -0.40625       -0.28125        0.46875
 BRILLOUIN|   321           0.00049       -0.40625       -0.21875       -0.46875
 BRILLOUIN|   322           0.00049       -0.40625       -0.21875       -0.40625
 BRILLOUIN|   323           0.00049       -0.40625       -0.21875       -0.34375
 BRILLOUIN|   324           0.00049       -0.40625       -0.21875       -0.28125
 BRILLOUIN|   325           0.00049       -0.40625       -0.21875       -0.21875
 BRILLOUIN|   326           0.00049       -0.40625       -0.21875       -0.15625
 BRILLOUIN|   327           0.00049       -0.40625       -0.21875       -0.09375
 BRILLOUIN|   328           0.00049       -0.40625       -0.21875       -0.03125
 BRILLOUIN|   329           0.00049       -0.40625       -0.21875        0.03125
 BRILLOUIN|   330           0.00049       -0.40625       -0.21875        0.09375
 BRILLOUIN|   331           0.00049       -0.40625       -0.21875        0.15625
 BRILLOUIN|   332           0.00049       -0.40625       -0.21875        0.21875
 BRILLOUIN|   333           0.00049       -0.40625       -0.21875        0.28125
 BRILLOUIN|   334           0.00049       -0.40625       -0.21875        0.34375
 BRILLOUIN|   335           0.00049       -0.40625       -0.21875        0.40625
 BRILLOUIN|   336           0.00049       -0.40625       -0.21875        0.46875
 BRILLOUIN|   337           0.00049       -0.40625       -0.15625       -0.46875
 BRILLOUIN|   338           0.00049       -0.40625       -0.15625       -0.40625
 BRILLOUIN|   339           0.00049       -0.40625       -0.15625       -0.34375
 BRILLOUIN|   340           0.00049       -0.40625       -0.15625       -0.28125
 BRILLOUIN|   341           0.00049       -0.40625       -0.15625       -0.21875
 BRILLOUIN|   342           0.00049       -0.40625       -0.15625       -0.15625
 BRILLOUIN|   343           0.00049       -0.40625       -0.15625       -0.09375
 BRILLOUIN|   344           0.00049       -0.40625       -0.15625       -0.03125
 BRILLOUIN|   345           0.00049       -0.40625       -0.15625        0.03125
 BRILLOUIN|   346           0.00049       -0.40625       -0.15625        0.09375
 BRILLOUIN|   347           0.00049       -0.40625       -0.15625        0.15625
 BRILLOUIN|   348           0.00049       -0.40625       -0.15625        0.21875
 BRILLOUIN|   349           0.00049       -0.40625       -0.15625        0.28125
 BRILLOUIN|   350           0.00049       -0.40625       -0.15625        0.34375
 BRILLOUIN|   351           0.00049       -0.40625       -0.15625        0.40625
 BRILLOUIN|   352           0.00049       -0.40625       -0.15625        0.46875
 BRILLOUIN|   353           0.00049       -0.40625       -0.09375       -0.46875
 BRILLOUIN|   354           0.00049       -0.40625       -0.09375       -0.40625
 BRILLOUIN|   355           0.00049       -0.40625       -0.09375       -0.34375
 BRILLOUIN|   356           0.00049       -0.40625       -0.09375       -0.28125
 BRILLOUIN|   357           0.00049       -0.40625       -0.09375       -0.21875
 BRILLOUIN|   358           0.00049       -0.40625       -0.09375       -0.15625
 BRILLOUIN|   359           0.00049       -0.40625       -0.09375       -0.09375
 BRILLOUIN|   360           0.00049       -0.40625       -0.09375       -0.03125
 BRILLOUIN|   361           0.00049       -0.40625       -0.09375        0.03125
 BRILLOUIN|   362           0.00049       -0.40625       -0.09375        0.09375
 BRILLOUIN|   363           0.00049       -0.40625       -0.09375        0.15625
 BRILLOUIN|   364           0.00049       -0.40625       -0.09375        0.21875
 BRILLOUIN|   365           0.00049       -0.40625       -0.09375        0.28125
 BRILLOUIN|   366           0.00049       -0.40625       -0.09375        0.34375
 BRILLOUIN|   367           0.00049       -0.40625       -0.09375        0.40625
 BRILLOUIN|   368           0.00049       -0.40625       -0.09375        0.46875
 BRILLOUIN|   369           0.00049       -0.40625       -0.03125       -0.46875
 BRILLOUIN|   370           0.00049       -0.40625       -0.03125       -0.40625
 BRILLOUIN|   371           0.00049       -0.40625       -0.03125       -0.34375
 BRILLOUIN|   372           0.00049       -0.40625       -0.03125       -0.28125
 BRILLOUIN|   373           0.00049       -0.40625       -0.03125       -0.21875
 BRILLOUIN|   374           0.00049       -0.40625       -0.03125       -0.15625
 BRILLOUIN|   375           0.00049       -0.40625       -0.03125       -0.09375
 BRILLOUIN|   376           0.00049       -0.40625       -0.03125       -0.03125
 BRILLOUIN|   377           0.00049       -0.40625       -0.03125        0.03125
 BRILLOUIN|   378           0.00049       -0.40625       -0.03125        0.09375
 BRILLOUIN|   379           0.00049       -0.40625       -0.03125        0.15625
 BRILLOUIN|   380           0.00049       -0.40625       -0.03125        0.21875
 BRILLOUIN|   381           0.00049       -0.40625       -0.03125        0.28125
 BRILLOUIN|   382           0.00049       -0.40625       -0.03125        0.34375
 BRILLOUIN|   383           0.00049       -0.40625       -0.03125        0.40625
 BRILLOUIN|   384           0.00049       -0.40625       -0.03125        0.46875
 BRILLOUIN|   385           0.00049       -0.40625        0.03125       -0.46875
 BRILLOUIN|   386           0.00049       -0.40625        0.03125       -0.40625
 BRILLOUIN|   387           0.00049       -0.40625        0.03125       -0.34375
 BRILLOUIN|   388           0.00049       -0.40625        0.03125       -0.28125
 BRILLOUIN|   389           0.00049       -0.40625        0.03125       -0.21875
 BRILLOUIN|   390           0.00049       -0.40625        0.03125       -0.15625
 BRILLOUIN|   391           0.00049       -0.40625        0.03125       -0.09375
 BRILLOUIN|   392           0.00049       -0.40625        0.03125       -0.03125
 BRILLOUIN|   393           0.00049       -0.40625        0.03125        0.03125
 BRILLOUIN|   394           0.00049       -0.40625        0.03125        0.09375
 BRILLOUIN|   395           0.00049       -0.40625        0.03125        0.15625
 BRILLOUIN|   396           0.00049       -0.40625        0.03125        0.21875
 BRILLOUIN|   397           0.00049       -0.40625        0.03125        0.28125
 BRILLOUIN|   398           0.00049       -0.40625        0.03125        0.34375
 BRILLOUIN|   399           0.00049       -0.40625        0.03125        0.40625
 BRILLOUIN|   400           0.00049       -0.40625        0.03125        0.46875
 BRILLOUIN|   401           0.00049       -0.40625        0.09375       -0.46875
 BRILLOUIN|   402           0.00049       -0.40625        0.09375       -0.40625
 BRILLOUIN|   403           0.00049       -0.40625        0.09375       -0.34375
 BRILLOUIN|   404           0.00049       -0.40625        0.09375       -0.28125
 BRILLOUIN|   405           0.00049       -0.40625        0.09375       -0.21875
 BRILLOUIN|   406           0.00049       -0.40625        0.09375       -0.15625
 BRILLOUIN|   407           0.00049       -0.40625        0.09375       -0.09375
 BRILLOUIN|   408           0.00049       -0.40625        0.09375       -0.03125
 BRILLOUIN|   409           0.00049       -0.40625        0.09375        0.03125
 BRILLOUIN|   410           0.00049       -0.40625        0.09375        0.09375
 BRILLOUIN|   411           0.00049       -0.40625        0.09375        0.15625
 BRILLOUIN|   412           0.00049       -0.40625        0.09375        0.21875
 BRILLOUIN|   413           0.00049       -0.40625        0.09375        0.28125
 BRILLOUIN|   414           0.00049       -0.40625        0.09375        0.34375
 BRILLOUIN|   415           0.00049       -0.40625        0.09375        0.40625
 BRILLOUIN|   416           0.00049       -0.40625        0.09375        0.46875
 BRILLOUIN|   417           0.00049       -0.40625        0.15625       -0.46875
 BRILLOUIN|   418           0.00049       -0.40625        0.15625       -0.40625
 BRILLOUIN|   419           0.00049       -0.40625        0.15625       -0.34375
 BRILLOUIN|   420           0.00049       -0.40625        0.15625       -0.28125
 BRILLOUIN|   421           0.00049       -0.40625        0.15625       -0.21875
 BRILLOUIN|   422           0.00049       -0.40625        0.15625       -0.15625
 BRILLOUIN|   423           0.00049       -0.40625        0.15625       -0.09375
 BRILLOUIN|   424           0.00049       -0.40625        0.15625       -0.03125
 BRILLOUIN|   425           0.00049       -0.40625        0.15625        0.03125
 BRILLOUIN|   426           0.00049       -0.40625        0.15625        0.09375
 BRILLOUIN|   427           0.00049       -0.40625        0.15625        0.15625
 BRILLOUIN|   428           0.00049       -0.40625        0.15625        0.21875
 BRILLOUIN|   429           0.00049       -0.40625        0.15625        0.28125
 BRILLOUIN|   430           0.00049       -0.40625        0.15625        0.34375
 BRILLOUIN|   431           0.00049       -0.40625        0.15625        0.40625
 BRILLOUIN|   432           0.00049       -0.40625        0.15625        0.46875
 BRILLOUIN|   433           0.00049       -0.40625        0.21875       -0.46875
 BRILLOUIN|   434           0.00049       -0.40625        0.21875       -0.40625
 BRILLOUIN|   435           0.00049       -0.40625        0.21875       -0.34375
 BRILLOUIN|   436           0.00049       -0.40625        0.21875       -0.28125
 BRILLOUIN|   437           0.00049       -0.40625        0.21875       -0.21875
 BRILLOUIN|   438           0.00049       -0.40625        0.21875       -0.15625
 BRILLOUIN|   439           0.00049       -0.40625        0.21875       -0.09375
 BRILLOUIN|   440           0.00049       -0.40625        0.21875       -0.03125
 BRILLOUIN|   441           0.00049       -0.40625        0.21875        0.03125
 BRILLOUIN|   442           0.00049       -0.40625        0.21875        0.09375
 BRILLOUIN|   443           0.00049       -0.40625        0.21875        0.15625
 BRILLOUIN|   444           0.00049       -0.40625        0.21875        0.21875
 BRILLOUIN|   445           0.00049       -0.40625        0.21875        0.28125
 BRILLOUIN|   446           0.00049       -0.40625        0.21875        0.34375
 BRILLOUIN|   447           0.00049       -0.40625        0.21875        0.40625
 BRILLOUIN|   448           0.00049       -0.40625        0.21875        0.46875
 BRILLOUIN|   449           0.00049       -0.40625        0.28125       -0.46875
 BRILLOUIN|   450           0.00049       -0.40625        0.28125       -0.40625
 BRILLOUIN|   451           0.00049       -0.40625        0.28125       -0.34375
 BRILLOUIN|   452           0.00049       -0.40625        0.28125       -0.28125
 BRILLOUIN|   453           0.00049       -0.40625        0.28125       -0.21875
 BRILLOUIN|   454           0.00049       -0.40625        0.28125       -0.15625
 BRILLOUIN|   455           0.00049       -0.40625        0.28125       -0.09375
 BRILLOUIN|   456           0.00049       -0.40625        0.28125       -0.03125
 BRILLOUIN|   457           0.00049       -0.40625        0.28125        0.03125
 BRILLOUIN|   458           0.00049       -0.40625        0.28125        0.09375
 BRILLOUIN|   459           0.00049       -0.40625        0.28125        0.15625
 BRILLOUIN|   460           0.00049       -0.40625        0.28125        0.21875
 BRILLOUIN|   461           0.00049       -0.40625        0.28125        0.28125
 BRILLOUIN|   462           0.00049       -0.40625        0.28125        0.34375
 BRILLOUIN|   463           0.00049       -0.40625        0.28125        0.40625
 BRILLOUIN|   464           0.00049       -0.40625        0.28125        0.46875
 BRILLOUIN|   465           0.00049       -0.40625        0.34375       -0.46875
 BRILLOUIN|   466           0.00049       -0.40625        0.34375       -0.40625
 BRILLOUIN|   467           0.00049       -0.40625        0.34375       -0.34375
 BRILLOUIN|   468           0.00049       -0.40625        0.34375       -0.28125
 BRILLOUIN|   469           0.00049       -0.40625        0.34375       -0.21875
 BRILLOUIN|   470           0.00049       -0.40625        0.34375       -0.15625
 BRILLOUIN|   471           0.00049       -0.40625        0.34375       -0.09375
 BRILLOUIN|   472           0.00049       -0.40625        0.34375       -0.03125
 BRILLOUIN|   473           0.00049       -0.40625        0.34375        0.03125
 BRILLOUIN|   474           0.00049       -0.40625        0.34375        0.09375
 BRILLOUIN|   475           0.00049       -0.40625        0.34375        0.15625
 BRILLOUIN|   476           0.00049       -0.40625        0.34375        0.21875
 BRILLOUIN|   477           0.00049       -0.40625        0.34375        0.28125
 BRILLOUIN|   478           0.00049       -0.40625        0.34375        0.34375
 BRILLOUIN|   479           0.00049       -0.40625        0.34375        0.40625
 BRILLOUIN|   480           0.00049       -0.40625        0.34375        0.46875
 BRILLOUIN|   481           0.00049       -0.40625        0.40625       -0.46875
 BRILLOUIN|   482           0.00049       -0.40625        0.40625       -0.40625
 BRILLOUIN|   483           0.00049       -0.40625        0.40625       -0.34375
 BRILLOUIN|   484           0.00049       -0.40625        0.40625       -0.28125
 BRILLOUIN|   485           0.00049       -0.40625        0.40625       -0.21875
 BRILLOUIN|   486           0.00049       -0.40625        0.40625       -0.15625
 BRILLOUIN|   487           0.00049       -0.40625        0.40625       -0.09375
 BRILLOUIN|   488           0.00049       -0.40625        0.40625       -0.03125
 BRILLOUIN|   489           0.00049       -0.40625        0.40625        0.03125
 BRILLOUIN|   490           0.00049       -0.40625        0.40625        0.09375
 BRILLOUIN|   491           0.00049       -0.40625        0.40625        0.15625
 BRILLOUIN|   492           0.00049       -0.40625        0.40625        0.21875
 BRILLOUIN|   493           0.00049       -0.40625        0.40625        0.28125
 BRILLOUIN|   494           0.00049       -0.40625        0.40625        0.34375
 BRILLOUIN|   495           0.00049       -0.40625        0.40625        0.40625
 BRILLOUIN|   496           0.00049       -0.40625        0.40625        0.46875
 BRILLOUIN|   497           0.00049       -0.40625        0.46875       -0.46875
 BRILLOUIN|   498           0.00049       -0.40625        0.46875       -0.40625
 BRILLOUIN|   499           0.00049       -0.40625        0.46875       -0.34375
 BRILLOUIN|   500           0.00049       -0.40625        0.46875       -0.28125
 BRILLOUIN|   501           0.00049       -0.40625        0.46875       -0.21875
 BRILLOUIN|   502           0.00049       -0.40625        0.46875       -0.15625
 BRILLOUIN|   503           0.00049       -0.40625        0.46875       -0.09375
 BRILLOUIN|   504           0.00049       -0.40625        0.46875       -0.03125
 BRILLOUIN|   505           0.00049       -0.40625        0.46875        0.03125
 BRILLOUIN|   506           0.00049       -0.40625        0.46875        0.09375
 BRILLOUIN|   507           0.00049       -0.40625        0.46875        0.15625
 BRILLOUIN|   508           0.00049       -0.40625        0.46875        0.21875
 BRILLOUIN|   509           0.00049       -0.40625        0.46875        0.28125
 BRILLOUIN|   510           0.00049       -0.40625        0.46875        0.34375
 BRILLOUIN|   511           0.00049       -0.40625        0.46875        0.40625
 BRILLOUIN|   512           0.00049       -0.40625        0.46875        0.46875
 BRILLOUIN|   513           0.00049       -0.34375       -0.46875       -0.46875
 BRILLOUIN|   514           0.00049       -0.34375       -0.46875       -0.40625
 BRILLOUIN|   515           0.00049       -0.34375       -0.46875       -0.34375
 BRILLOUIN|   516           0.00049       -0.34375       -0.46875       -0.28125
 BRILLOUIN|   517           0.00049       -0.34375       -0.46875       -0.21875
 BRILLOUIN|   518           0.00049       -0.34375       -0.46875       -0.15625
 BRILLOUIN|   519           0.00049       -0.34375       -0.46875       -0.09375
 BRILLOUIN|   520           0.00049       -0.34375       -0.46875       -0.03125
 BRILLOUIN|   521           0.00049       -0.34375       -0.46875        0.03125
 BRILLOUIN|   522           0.00049       -0.34375       -0.46875        0.09375
 BRILLOUIN|   523           0.00049       -0.34375       -0.46875        0.15625
 BRILLOUIN|   524           0.00049       -0.34375       -0.46875        0.21875
 BRILLOUIN|   525           0.00049       -0.34375       -0.46875        0.28125
 BRILLOUIN|   526           0.00049       -0.34375       -0.46875        0.34375
 BRILLOUIN|   527           0.00049       -0.34375       -0.46875        0.40625
 BRILLOUIN|   528           0.00049       -0.34375       -0.46875        0.46875
 BRILLOUIN|   529           0.00049       -0.34375       -0.40625       -0.46875
 BRILLOUIN|   530           0.00049       -0.34375       -0.40625       -0.40625
 BRILLOUIN|   531           0.00049       -0.34375       -0.40625       -0.34375
 BRILLOUIN|   532           0.00049       -0.34375       -0.40625       -0.28125
 BRILLOUIN|   533           0.00049       -0.34375       -0.40625       -0.21875
 BRILLOUIN|   534           0.00049       -0.34375       -0.40625       -0.15625
 BRILLOUIN|   535           0.00049       -0.34375       -0.40625       -0.09375
 BRILLOUIN|   536           0.00049       -0.34375       -0.40625       -0.03125
 BRILLOUIN|   537           0.00049       -0.34375       -0.40625        0.03125
 BRILLOUIN|   538           0.00049       -0.34375       -0.40625        0.09375
 BRILLOUIN|   539           0.00049       -0.34375       -0.40625        0.15625
 BRILLOUIN|   540           0.00049       -0.34375       -0.40625        0.21875
 BRILLOUIN|   541           0.00049       -0.34375       -0.40625        0.28125
 BRILLOUIN|   542           0.00049       -0.34375       -0.40625        0.34375
 BRILLOUIN|   543           0.00049       -0.34375       -0.40625        0.40625
 BRILLOUIN|   544           0.00049       -0.34375       -0.40625        0.46875
 BRILLOUIN|   545           0.00049       -0.34375       -0.34375       -0.46875
 BRILLOUIN|   546           0.00049       -0.34375       -0.34375       -0.40625
 BRILLOUIN|   547           0.00049       -0.34375       -0.34375       -0.34375
 BRILLOUIN|   548           0.00049       -0.34375       -0.34375       -0.28125
 BRILLOUIN|   549           0.00049       -0.34375       -0.34375       -0.21875
 BRILLOUIN|   550           0.00049       -0.34375       -0.34375       -0.15625
 BRILLOUIN|   551           0.00049       -0.34375       -0.34375       -0.09375
 BRILLOUIN|   552           0.00049       -0.34375       -0.34375       -0.03125
 BRILLOUIN|   553           0.00049       -0.34375       -0.34375        0.03125
 BRILLOUIN|   554           0.00049       -0.34375       -0.34375        0.09375
 BRILLOUIN|   555           0.00049       -0.34375       -0.34375        0.15625
 BRILLOUIN|   556           0.00049       -0.34375       -0.34375        0.21875
 BRILLOUIN|   557           0.00049       -0.34375       -0.34375        0.28125
 BRILLOUIN|   558           0.00049       -0.34375       -0.34375        0.34375
 BRILLOUIN|   559           0.00049       -0.34375       -0.34375        0.40625
 BRILLOUIN|   560           0.00049       -0.34375       -0.34375        0.46875
 BRILLOUIN|   561           0.00049       -0.34375       -0.28125       -0.46875
 BRILLOUIN|   562           0.00049       -0.34375       -0.28125       -0.40625
 BRILLOUIN|   563           0.00049       -0.34375       -0.28125       -0.34375
 BRILLOUIN|   564           0.00049       -0.34375       -0.28125       -0.28125
 BRILLOUIN|   565           0.00049       -0.34375       -0.28125       -0.21875
 BRILLOUIN|   566           0.00049       -0.34375       -0.28125       -0.15625
 BRILLOUIN|   567           0.00049       -0.34375       -0.28125       -0.09375
 BRILLOUIN|   568           0.00049       -0.34375       -0.28125       -0.03125
 BRILLOUIN|   569           0.00049       -0.34375       -0.28125        0.03125
 BRILLOUIN|   570           0.00049       -0.34375       -0.28125        0.09375
 BRILLOUIN|   571           0.00049       -0.34375       -0.28125        0.15625
 BRILLOUIN|   572           0.00049       -0.34375       -0.28125        0.21875
 BRILLOUIN|   573           0.00049       -0.34375       -0.28125        0.28125
 BRILLOUIN|   574           0.00049       -0.34375       -0.28125        0.34375
 BRILLOUIN|   575           0.00049       -0.34375       -0.28125        0.40625
 BRILLOUIN|   576           0.00049       -0.34375       -0.28125        0.46875
 BRILLOUIN|   577           0.00049       -0.34375       -0.21875       -0.46875
 BRILLOUIN|   578           0.00049       -0.34375       -0.21875       -0.40625
 BRILLOUIN|   579           0.00049       -0.34375       -0.21875       -0.34375
 BRILLOUIN|   580           0.00049       -0.34375       -0.21875       -0.28125
 BRILLOUIN|   581           0.00049       -0.34375       -0.21875       -0.21875
 BRILLOUIN|   582           0.00049       -0.34375       -0.21875       -0.15625
 BRILLOUIN|   583           0.00049       -0.34375       -0.21875       -0.09375
 BRILLOUIN|   584           0.00049       -0.34375       -0.21875       -0.03125
 BRILLOUIN|   585           0.00049       -0.34375       -0.21875        0.03125
 BRILLOUIN|   586           0.00049       -0.34375       -0.21875        0.09375
 BRILLOUIN|   587           0.00049       -0.34375       -0.21875        0.15625
 BRILLOUIN|   588           0.00049       -0.34375       -0.21875        0.21875
 BRILLOUIN|   589           0.00049       -0.34375       -0.21875        0.28125
 BRILLOUIN|   590           0.00049       -0.34375       -0.21875        0.34375
 BRILLOUIN|   591           0.00049       -0.34375       -0.21875        0.40625
 BRILLOUIN|   592           0.00049       -0.34375       -0.21875        0.46875
 BRILLOUIN|   593           0.00049       -0.34375       -0.15625       -0.46875
 BRILLOUIN|   594           0.00049       -0.34375       -0.15625       -0.40625
 BRILLOUIN|   595           0.00049       -0.34375       -0.15625       -0.34375
 BRILLOUIN|   596           0.00049       -0.34375       -0.15625       -0.28125
 BRILLOUIN|   597           0.00049       -0.34375       -0.15625       -0.21875
 BRILLOUIN|   598           0.00049       -0.34375       -0.15625       -0.15625
 BRILLOUIN|   599           0.00049       -0.34375       -0.15625       -0.09375
 BRILLOUIN|   600           0.00049       -0.34375       -0.15625       -0.03125
 BRILLOUIN|   601           0.00049       -0.34375       -0.15625        0.03125
 BRILLOUIN|   602           0.00049       -0.34375       -0.15625        0.09375
 BRILLOUIN|   603           0.00049       -0.34375       -0.15625        0.15625
 BRILLOUIN|   604           0.00049       -0.34375       -0.15625        0.21875
 BRILLOUIN|   605           0.00049       -0.34375       -0.15625        0.28125
 BRILLOUIN|   606           0.00049       -0.34375       -0.15625        0.34375
 BRILLOUIN|   607           0.00049       -0.34375       -0.15625        0.40625
 BRILLOUIN|   608           0.00049       -0.34375       -0.15625        0.46875
 BRILLOUIN|   609           0.00049       -0.34375       -0.09375       -0.46875
 BRILLOUIN|   610           0.00049       -0.34375       -0.09375       -0.40625
 BRILLOUIN|   611           0.00049       -0.34375       -0.09375       -0.34375
 BRILLOUIN|   612           0.00049       -0.34375       -0.09375       -0.28125
 BRILLOUIN|   613           0.00049       -0.34375       -0.09375       -0.21875
 BRILLOUIN|   614           0.00049       -0.34375       -0.09375       -0.15625
 BRILLOUIN|   615           0.00049       -0.34375       -0.09375       -0.09375
 BRILLOUIN|   616           0.00049       -0.34375       -0.09375       -0.03125
 BRILLOUIN|   617           0.00049       -0.34375       -0.09375        0.03125
 BRILLOUIN|   618           0.00049       -0.34375       -0.09375        0.09375
 BRILLOUIN|   619           0.00049       -0.34375       -0.09375        0.15625
 BRILLOUIN|   620           0.00049       -0.34375       -0.09375        0.21875
 BRILLOUIN|   621           0.00049       -0.34375       -0.09375        0.28125
 BRILLOUIN|   622           0.00049       -0.34375       -0.09375        0.34375
 BRILLOUIN|   623           0.00049       -0.34375       -0.09375        0.40625
 BRILLOUIN|   624           0.00049       -0.34375       -0.09375        0.46875
 BRILLOUIN|   625           0.00049       -0.34375       -0.03125       -0.46875
 BRILLOUIN|   626           0.00049       -0.34375       -0.03125       -0.40625
 BRILLOUIN|   627           0.00049       -0.34375       -0.03125       -0.34375
 BRILLOUIN|   628           0.00049       -0.34375       -0.03125       -0.28125
 BRILLOUIN|   629           0.00049       -0.34375       -0.03125       -0.21875
 BRILLOUIN|   630           0.00049       -0.34375       -0.03125       -0.15625
 BRILLOUIN|   631           0.00049       -0.34375       -0.03125       -0.09375
 BRILLOUIN|   632           0.00049       -0.34375       -0.03125       -0.03125
 BRILLOUIN|   633           0.00049       -0.34375       -0.03125        0.03125
 BRILLOUIN|   634           0.00049       -0.34375       -0.03125        0.09375
 BRILLOUIN|   635           0.00049       -0.34375       -0.03125        0.15625
 BRILLOUIN|   636           0.00049       -0.34375       -0.03125        0.21875
 BRILLOUIN|   637           0.00049       -0.34375       -0.03125        0.28125
 BRILLOUIN|   638           0.00049       -0.34375       -0.03125        0.34375
 BRILLOUIN|   639           0.00049       -0.34375       -0.03125        0.40625
 BRILLOUIN|   640           0.00049       -0.34375       -0.03125        0.46875
 BRILLOUIN|   641           0.00049       -0.34375        0.03125       -0.46875
 BRILLOUIN|   642           0.00049       -0.34375        0.03125       -0.40625
 BRILLOUIN|   643           0.00049       -0.34375        0.03125       -0.34375
 BRILLOUIN|   644           0.00049       -0.34375        0.03125       -0.28125
 BRILLOUIN|   645           0.00049       -0.34375        0.03125       -0.21875
 BRILLOUIN|   646           0.00049       -0.34375        0.03125       -0.15625
 BRILLOUIN|   647           0.00049       -0.34375        0.03125       -0.09375
 BRILLOUIN|   648           0.00049       -0.34375        0.03125       -0.03125
 BRILLOUIN|   649           0.00049       -0.34375        0.03125        0.03125
 BRILLOUIN|   650           0.00049       -0.34375        0.03125        0.09375
 BRILLOUIN|   651           0.00049       -0.34375        0.03125        0.15625
 BRILLOUIN|   652           0.00049       -0.34375        0.03125        0.21875
 BRILLOUIN|   653           0.00049       -0.34375        0.03125        0.28125
 BRILLOUIN|   654           0.00049       -0.34375        0.03125        0.34375
 BRILLOUIN|   655           0.00049       -0.34375        0.03125        0.40625
 BRILLOUIN|   656           0.00049       -0.34375        0.03125        0.46875
 BRILLOUIN|   657           0.00049       -0.34375        0.09375       -0.46875
 BRILLOUIN|   658           0.00049       -0.34375        0.09375       -0.40625
 BRILLOUIN|   659           0.00049       -0.34375        0.09375       -0.34375
 BRILLOUIN|   660           0.00049       -0.34375        0.09375       -0.28125
 BRILLOUIN|   661           0.00049       -0.34375        0.09375       -0.21875
 BRILLOUIN|   662           0.00049       -0.34375        0.09375       -0.15625
 BRILLOUIN|   663           0.00049       -0.34375        0.09375       -0.09375
 BRILLOUIN|   664           0.00049       -0.34375        0.09375       -0.03125
 BRILLOUIN|   665           0.00049       -0.34375        0.09375        0.03125
 BRILLOUIN|   666           0.00049       -0.34375        0.09375        0.09375
 BRILLOUIN|   667           0.00049       -0.34375        0.09375        0.15625
 BRILLOUIN|   668           0.00049       -0.34375        0.09375        0.21875
 BRILLOUIN|   669           0.00049       -0.34375        0.09375        0.28125
 BRILLOUIN|   670           0.00049       -0.34375        0.09375        0.34375
 BRILLOUIN|   671           0.00049       -0.34375        0.09375        0.40625
 BRILLOUIN|   672           0.00049       -0.34375        0.09375        0.46875
 BRILLOUIN|   673           0.00049       -0.34375        0.15625       -0.46875
 BRILLOUIN|   674           0.00049       -0.34375        0.15625       -0.40625
 BRILLOUIN|   675           0.00049       -0.34375        0.15625       -0.34375
 BRILLOUIN|   676           0.00049       -0.34375        0.15625       -0.28125
 BRILLOUIN|   677           0.00049       -0.34375        0.15625       -0.21875
 BRILLOUIN|   678           0.00049       -0.34375        0.15625       -0.15625
 BRILLOUIN|   679           0.00049       -0.34375        0.15625       -0.09375
 BRILLOUIN|   680           0.00049       -0.34375        0.15625       -0.03125
 BRILLOUIN|   681           0.00049       -0.34375        0.15625        0.03125
 BRILLOUIN|   682           0.00049       -0.34375        0.15625        0.09375
 BRILLOUIN|   683           0.00049       -0.34375        0.15625        0.15625
 BRILLOUIN|   684           0.00049       -0.34375        0.15625        0.21875
 BRILLOUIN|   685           0.00049       -0.34375        0.15625        0.28125
 BRILLOUIN|   686           0.00049       -0.34375        0.15625        0.34375
 BRILLOUIN|   687           0.00049       -0.34375        0.15625        0.40625
 BRILLOUIN|   688           0.00049       -0.34375        0.15625        0.46875
 BRILLOUIN|   689           0.00049       -0.34375        0.21875       -0.46875
 BRILLOUIN|   690           0.00049       -0.34375        0.21875       -0.40625
 BRILLOUIN|   691           0.00049       -0.34375        0.21875       -0.34375
 BRILLOUIN|   692           0.00049       -0.34375        0.21875       -0.28125
 BRILLOUIN|   693           0.00049       -0.34375        0.21875       -0.21875
 BRILLOUIN|   694           0.00049       -0.34375        0.21875       -0.15625
 BRILLOUIN|   695           0.00049       -0.34375        0.21875       -0.09375
 BRILLOUIN|   696           0.00049       -0.34375        0.21875       -0.03125
 BRILLOUIN|   697           0.00049       -0.34375        0.21875        0.03125
 BRILLOUIN|   698           0.00049       -0.34375        0.21875        0.09375
 BRILLOUIN|   699           0.00049       -0.34375        0.21875        0.15625
 BRILLOUIN|   700           0.00049       -0.34375        0.21875        0.21875
 BRILLOUIN|   701           0.00049       -0.34375        0.21875        0.28125
 BRILLOUIN|   702           0.00049       -0.34375        0.21875        0.34375
 BRILLOUIN|   703           0.00049       -0.34375        0.21875        0.40625
 BRILLOUIN|   704           0.00049       -0.34375        0.21875        0.46875
 BRILLOUIN|   705           0.00049       -0.34375        0.28125       -0.46875
 BRILLOUIN|   706           0.00049       -0.34375        0.28125       -0.40625
 BRILLOUIN|   707           0.00049       -0.34375        0.28125       -0.34375
 BRILLOUIN|   708           0.00049       -0.34375        0.28125       -0.28125
 BRILLOUIN|   709           0.00049       -0.34375        0.28125       -0.21875
 BRILLOUIN|   710           0.00049       -0.34375        0.28125       -0.15625
 BRILLOUIN|   711           0.00049       -0.34375        0.28125       -0.09375
 BRILLOUIN|   712           0.00049       -0.34375        0.28125       -0.03125
 BRILLOUIN|   713           0.00049       -0.34375        0.28125        0.03125
 BRILLOUIN|   714           0.00049       -0.34375        0.28125        0.09375
 BRILLOUIN|   715           0.00049       -0.34375        0.28125        0.15625
 BRILLOUIN|   716           0.00049       -0.34375        0.28125        0.21875
 BRILLOUIN|   717           0.00049       -0.34375        0.28125        0.28125
 BRILLOUIN|   718           0.00049       -0.34375        0.28125        0.34375
 BRILLOUIN|   719           0.00049       -0.34375        0.28125        0.40625
 BRILLOUIN|   720           0.00049       -0.34375        0.28125        0.46875
 BRILLOUIN|   721           0.00049       -0.34375        0.34375       -0.46875
 BRILLOUIN|   722           0.00049       -0.34375        0.34375       -0.40625
 BRILLOUIN|   723           0.00049       -0.34375        0.34375       -0.34375
 BRILLOUIN|   724           0.00049       -0.34375        0.34375       -0.28125
 BRILLOUIN|   725           0.00049       -0.34375        0.34375       -0.21875
 BRILLOUIN|   726           0.00049       -0.34375        0.34375       -0.15625
 BRILLOUIN|   727           0.00049       -0.34375        0.34375       -0.09375
 BRILLOUIN|   728           0.00049       -0.34375        0.34375       -0.03125
 BRILLOUIN|   729           0.00049       -0.34375        0.34375        0.03125
 BRILLOUIN|   730           0.00049       -0.34375        0.34375        0.09375
 BRILLOUIN|   731           0.00049       -0.34375        0.34375        0.15625
 BRILLOUIN|   732           0.00049       -0.34375        0.34375        0.21875
 BRILLOUIN|   733           0.00049       -0.34375        0.34375        0.28125
 BRILLOUIN|   734           0.00049       -0.34375        0.34375        0.34375
 BRILLOUIN|   735           0.00049       -0.34375        0.34375        0.40625
 BRILLOUIN|   736           0.00049       -0.34375        0.34375        0.46875
 BRILLOUIN|   737           0.00049       -0.34375        0.40625       -0.46875
 BRILLOUIN|   738           0.00049       -0.34375        0.40625       -0.40625
 BRILLOUIN|   739           0.00049       -0.34375        0.40625       -0.34375
 BRILLOUIN|   740           0.00049       -0.34375        0.40625       -0.28125
 BRILLOUIN|   741           0.00049       -0.34375        0.40625       -0.21875
 BRILLOUIN|   742           0.00049       -0.34375        0.40625       -0.15625
 BRILLOUIN|   743           0.00049       -0.34375        0.40625       -0.09375
 BRILLOUIN|   744           0.00049       -0.34375        0.40625       -0.03125
 BRILLOUIN|   745           0.00049       -0.34375        0.40625        0.03125
 BRILLOUIN|   746           0.00049       -0.34375        0.40625        0.09375
 BRILLOUIN|   747           0.00049       -0.34375        0.40625        0.15625
 BRILLOUIN|   748           0.00049       -0.34375        0.40625        0.21875
 BRILLOUIN|   749           0.00049       -0.34375        0.40625        0.28125
 BRILLOUIN|   750           0.00049       -0.34375        0.40625        0.34375
 BRILLOUIN|   751           0.00049       -0.34375        0.40625        0.40625
 BRILLOUIN|   752           0.00049       -0.34375        0.40625        0.46875
 BRILLOUIN|   753           0.00049       -0.34375        0.46875       -0.46875
 BRILLOUIN|   754           0.00049       -0.34375        0.46875       -0.40625
 BRILLOUIN|   755           0.00049       -0.34375        0.46875       -0.34375
 BRILLOUIN|   756           0.00049       -0.34375        0.46875       -0.28125
 BRILLOUIN|   757           0.00049       -0.34375        0.46875       -0.21875
 BRILLOUIN|   758           0.00049       -0.34375        0.46875       -0.15625
 BRILLOUIN|   759           0.00049       -0.34375        0.46875       -0.09375
 BRILLOUIN|   760           0.00049       -0.34375        0.46875       -0.03125
 BRILLOUIN|   761           0.00049       -0.34375        0.46875        0.03125
 BRILLOUIN|   762           0.00049       -0.34375        0.46875        0.09375
 BRILLOUIN|   763           0.00049       -0.34375        0.46875        0.15625
 BRILLOUIN|   764           0.00049       -0.34375        0.46875        0.21875
 BRILLOUIN|   765           0.00049       -0.34375        0.46875        0.28125
 BRILLOUIN|   766           0.00049       -0.34375        0.46875        0.34375
 BRILLOUIN|   767           0.00049       -0.34375        0.46875        0.40625
 BRILLOUIN|   768           0.00049       -0.34375        0.46875        0.46875
 BRILLOUIN|   769           0.00049       -0.28125       -0.46875       -0.46875
 BRILLOUIN|   770           0.00049       -0.28125       -0.46875       -0.40625
 BRILLOUIN|   771           0.00049       -0.28125       -0.46875       -0.34375
 BRILLOUIN|   772           0.00049       -0.28125       -0.46875       -0.28125
 BRILLOUIN|   773           0.00049       -0.28125       -0.46875       -0.21875
 BRILLOUIN|   774           0.00049       -0.28125       -0.46875       -0.15625
 BRILLOUIN|   775           0.00049       -0.28125       -0.46875       -0.09375
 BRILLOUIN|   776           0.00049       -0.28125       -0.46875       -0.03125
 BRILLOUIN|   777           0.00049       -0.28125       -0.46875        0.03125
 BRILLOUIN|   778           0.00049       -0.28125       -0.46875        0.09375
 BRILLOUIN|   779           0.00049       -0.28125       -0.46875        0.15625
 BRILLOUIN|   780           0.00049       -0.28125       -0.46875        0.21875
 BRILLOUIN|   781           0.00049       -0.28125       -0.46875        0.28125
 BRILLOUIN|   782           0.00049       -0.28125       -0.46875        0.34375
 BRILLOUIN|   783           0.00049       -0.28125       -0.46875        0.40625
 BRILLOUIN|   784           0.00049       -0.28125       -0.46875        0.46875
 BRILLOUIN|   785           0.00049       -0.28125       -0.40625       -0.46875
 BRILLOUIN|   786           0.00049       -0.28125       -0.40625       -0.40625
 BRILLOUIN|   787           0.00049       -0.28125       -0.40625       -0.34375
 BRILLOUIN|   788           0.00049       -0.28125       -0.40625       -0.28125
 BRILLOUIN|   789           0.00049       -0.28125       -0.40625       -0.21875
 BRILLOUIN|   790           0.00049       -0.28125       -0.40625       -0.15625
 BRILLOUIN|   791           0.00049       -0.28125       -0.40625       -0.09375
 BRILLOUIN|   792           0.00049       -0.28125       -0.40625       -0.03125
 BRILLOUIN|   793           0.00049       -0.28125       -0.40625        0.03125
 BRILLOUIN|   794           0.00049       -0.28125       -0.40625        0.09375
 BRILLOUIN|   795           0.00049       -0.28125       -0.40625        0.15625
 BRILLOUIN|   796           0.00049       -0.28125       -0.40625        0.21875
 BRILLOUIN|   797           0.00049       -0.28125       -0.40625        0.28125
 BRILLOUIN|   798           0.00049       -0.28125       -0.40625        0.34375
 BRILLOUIN|   799           0.00049       -0.28125       -0.40625        0.40625
 BRILLOUIN|   800           0.00049       -0.28125       -0.40625        0.46875
 BRILLOUIN|   801           0.00049       -0.28125       -0.34375       -0.46875
 BRILLOUIN|   802           0.00049       -0.28125       -0.34375       -0.40625
 BRILLOUIN|   803           0.00049       -0.28125       -0.34375       -0.34375
 BRILLOUIN|   804           0.00049       -0.28125       -0.34375       -0.28125
 BRILLOUIN|   805           0.00049       -0.28125       -0.34375       -0.21875
 BRILLOUIN|   806           0.00049       -0.28125       -0.34375       -0.15625
 BRILLOUIN|   807           0.00049       -0.28125       -0.34375       -0.09375
 BRILLOUIN|   808           0.00049       -0.28125       -0.34375       -0.03125
 BRILLOUIN|   809           0.00049       -0.28125       -0.34375        0.03125
 BRILLOUIN|   810           0.00049       -0.28125       -0.34375        0.09375
 BRILLOUIN|   811           0.00049       -0.28125       -0.34375        0.15625
 BRILLOUIN|   812           0.00049       -0.28125       -0.34375        0.21875
 BRILLOUIN|   813           0.00049       -0.28125       -0.34375        0.28125
 BRILLOUIN|   814           0.00049       -0.28125       -0.34375        0.34375
 BRILLOUIN|   815           0.00049       -0.28125       -0.34375        0.40625
 BRILLOUIN|   816           0.00049       -0.28125       -0.34375        0.46875
 BRILLOUIN|   817           0.00049       -0.28125       -0.28125       -0.46875
 BRILLOUIN|   818           0.00049       -0.28125       -0.28125       -0.40625
 BRILLOUIN|   819           0.00049       -0.28125       -0.28125       -0.34375
 BRILLOUIN|   820           0.00049       -0.28125       -0.28125       -0.28125
 BRILLOUIN|   821           0.00049       -0.28125       -0.28125       -0.21875
 BRILLOUIN|   822           0.00049       -0.28125       -0.28125       -0.15625
 BRILLOUIN|   823           0.00049       -0.28125       -0.28125       -0.09375
 BRILLOUIN|   824           0.00049       -0.28125       -0.28125       -0.03125
 BRILLOUIN|   825           0.00049       -0.28125       -0.28125        0.03125
 BRILLOUIN|   826           0.00049       -0.28125       -0.28125        0.09375
 BRILLOUIN|   827           0.00049       -0.28125       -0.28125        0.15625
 BRILLOUIN|   828           0.00049       -0.28125       -0.28125        0.21875
 BRILLOUIN|   829           0.00049       -0.28125       -0.28125        0.28125
 BRILLOUIN|   830           0.00049       -0.28125       -0.28125        0.34375
 BRILLOUIN|   831           0.00049       -0.28125       -0.28125        0.40625
 BRILLOUIN|   832           0.00049       -0.28125       -0.28125        0.46875
 BRILLOUIN|   833           0.00049       -0.28125       -0.21875       -0.46875
 BRILLOUIN|   834           0.00049       -0.28125       -0.21875       -0.40625
 BRILLOUIN|   835           0.00049       -0.28125       -0.21875       -0.34375
 BRILLOUIN|   836           0.00049       -0.28125       -0.21875       -0.28125
 BRILLOUIN|   837           0.00049       -0.28125       -0.21875       -0.21875
 BRILLOUIN|   838           0.00049       -0.28125       -0.21875       -0.15625
 BRILLOUIN|   839           0.00049       -0.28125       -0.21875       -0.09375
 BRILLOUIN|   840           0.00049       -0.28125       -0.21875       -0.03125
 BRILLOUIN|   841           0.00049       -0.28125       -0.21875        0.03125
 BRILLOUIN|   842           0.00049       -0.28125       -0.21875        0.09375
 BRILLOUIN|   843           0.00049       -0.28125       -0.21875        0.15625
 BRILLOUIN|   844           0.00049       -0.28125       -0.21875        0.21875
[...]
 Quickstep: Efficient and accurate electronic structure calculations.
 https://doi.org/10.1063/5.0007045

 A. Togo, I. Tanaka.
 arXiv, 1808.01590 (2018).
 Spglib : a software library for crystal symmetry search.

 O. Schuett, P. Messmer, J. Hutter, J. VandeVondele.
 Electronic Structure Calculations on Graphics Processing Units, 173-190 (2016).
 GPU-Accelerated Sparse Matrix-Matrix Multiplication for Linear Scaling Density 
 Functional Theory.
 https://doi.org/10.1002/9781118670712.ch8

 A. Heinecke, G. Henry, M. Hutchinson, H. Pabst.
 Proceedings of Intl. Supercomputing Conference, 981-991 (2016).
 LIBXSMM: Accelerating Small Matrix Multiplications by Runtime Code Generation.
 https://doi.org/10.1109/SC.2016.83

 J. Hutter, M. Iannuzzi, F. Schiffmann, J. VandeVondele.
 WIREs Comput Mol Sci. 4, 15-25 (2014).
 CP2K: atomistic simulations of condensed matter systems.
 https://doi.org/10.1002/wcms.1159

 U. Borstnik, J. VandeVondele, V. Weber, J. Hutter.
 Parallel Comput. 40, 47-58 (2014).
 Sparse matrix multiplication: The distributed block-compressed sparse row 
 library.
 https://doi.org/10.1016/j.parco.2014.03.012

 A. Marek, V. Blum, R. Johanni, V. Havu, B. Lang, T. Auckenthaler, A. Heinecke, 
 H. Bungartz, H. Lederer.
 J. Phys. Condens. Matter 26, 213201 (2014).
 The ELPA library: scalable parallel eigenvalue solutions for electronic 
 structure theory and computational science.
 https://doi.org/10.1088/0953-8984/26/21/213201

 J. VandeVondele, J. Hutter.
 J. Chem. Phys. 127, 114105 (2007).
 Gaussian basis sets for accurate calculations on molecular systems in gas and 
 condensed phases.
 https://doi.org/10.1063/1.2770708

 M. Krack.
 Theor. Chem. Acc. 114, 145-152 (2005).
 Pseudopotentials for H to Kr optimized for gradient-corrected 
 exchange-correlation functionals.
 https://doi.org/10.1007/s00214-005-0655-y

 M. Frigo, S. G. Johnson.
 Proc. IEEE 93, 216-231 (2005).
 The design and implementation of FFTW3.
 https://doi.org/10.1109/JPROC.2004.840301

 M. Krack, M. Parrinello.
 Phys. Chem. Chem. Phys. 2, 2105-2112 (2000).
 All-electron ab-initio molecular dynamics.
 https://doi.org/10.1039/b001167n

 G. Lippert, J. Hutter, M. Parrinello.
 Theor. Chem. Acc. 103, 124-140 (1999).
 The Gaussian and augmented-plane-wave density functional method for ab initio 
 molecular dynamics simulations.
 https://doi.org/10.1007/s002140050523

 C. Hartwigsen, S. Goedecker, J. Hutter.
 Phys. Rev. B 58, 3641-3662 (1998).
 Relativistic separable dual-space Gaussian pseudopotentials from H to Rn.
 https://doi.org/10.1103/PhysRevB.58.3641

 S. Goedecker, M. Teter, J. Hutter.
 Phys. Rev. B 54, 1703-1710 (1996).
 Separable dual-space Gaussian pseudopotentials.
 https://doi.org/10.1103/PhysRevB.54.1703

 J. P. Perdew, K. Burke, M. Ernzerhof.
 Phys. Rev. Lett. 77, 3865-3868 (1996).
 Generalized gradient approximation made simple.
 https://doi.org/10.1103/PhysRevLett.77.3865


 -------------------------------------------------------------------------------
 -                                                                             -
 -                                T I M I N G                                  -
 -                                                                             -
 -------------------------------------------------------------------------------
 SUBROUTINE                       CALLS  ASD         SELF TIME        TOTAL TIME
                                MAXIMUM       AVERAGE  MAXIMUM  AVERAGE  MAXIMUM
 CP2K                                 1  1.0     0.07     0.24 35886.34 35886.53
 qs_energies                          1  2.0     0.01     0.05 35883.39 35883.98
 qs_energies_properties               1  3.0     0.00     0.00 35524.20 35524.80
 post_scf_bandstructure               1  4.0     0.00     0.01 35524.20 35524.80
 gw                                   1  5.0     0.01     0.02 35243.09 35243.55
 gw_calc_small_cell_full_kp           1  6.0     0.00     0.00 35163.36 35163.79
 dbt_total                      ******* -4.7   383.68   416.92 21792.90 22626.89
 compute_Sigma_c                      1  7.0     0.01     0.03 18875.90 18876.01
 dbt_contract                   ******* 10.7   348.45   382.94 16710.14 17317.50
 dbt_tas_multiply               ******* 13.0    26.65    29.22 15334.69 15929.03
 dbt_tas_total                  ******* 14.0  1466.29  1506.46 15318.26 15912.52
 compute_chi                          1  7.0     0.34     0.59 14387.11 14387.50
 contract_to_Sigma                 2013  8.0  1659.53  1759.40 12655.38 13144.69
 dbt_tas_estimate_result_nze    ******* 13.5   451.63   480.56  7676.15  8011.01
 contract_M_occ_vir_to_chi          990  8.0  3310.21  3530.09  7311.02  7663.92
 contract_to_Sigma_3c_x_G       *******  9.0    86.83    96.05  7315.79  7647.74
 G_times_3c                      153900  8.0   170.88   187.66  5389.61  5593.76
 dbt_copy                       ******* 11.2   395.65   428.52  4767.22  5071.27
 contract_W                        1023  8.0   129.44   143.27  4896.09  5064.66
 get_t_3c_int                   *******  9.7   520.17   565.53  3656.85  3908.57
 dbt_tas_dbm                    ******* 15.0    26.53    27.81  3611.54  3792.28
 reshape_mm_small               ******* 15.0  1892.99  1998.71  3658.89  3770.60
 dbm_multiply                   ******* 17.0  3556.35  3735.40  3556.35  3735.40
 contract_to_Sigma_contract      156465  9.0   199.69   225.04  3403.30  3622.05
 dbt_reshape                    ******* 12.0  2178.52  2421.33  2898.01  3200.27
 add_R                          ******* ****  1197.17  1371.81  1959.22  2206.72
 mp_sync                        ******* -0.8  1318.50  2081.95  1318.50  2081.95
 dbt_tas_create_split           ******* 16.1    51.44    55.74  1908.70  1985.31
 dbt_tas_create_split_rows_or_c ******* 17.1   197.50   221.91  1857.26  1930.87
 G_occ_vir                          121  8.0     1.14     1.38  1885.27  1893.44
 reshape_mm_compatible          ******* 15.0   271.15   294.62  1730.86  1790.87
 parallel_gemm_cfm              1048696  8.9     0.61     0.74  1580.75  1632.32
 parallel_gemm_cfm_cosma        1048696  9.9  1580.13  1631.73  1580.13  1631.73
 dbt_tas_mm_3T                  ******* 16.2     8.31     9.28  1518.54  1597.24
 dbt_tas_distribution_new       ******* 15.8   695.89   726.63  1337.88  1400.01
 is_cell_in_index_to_cell       ******* -3.9  1158.79  1266.13  1158.79  1266.13
 change_split                   ******* 15.5    84.73    91.05  1194.88  1235.17
 dbt_tas_replicate              ******* 15.0   517.18   547.75  1134.47  1186.20
 compute_QP_energies                  1  7.0     0.13     0.25  1178.11  1178.28
 trafo_to_k_and_nn               255590  8.0     0.82     1.05  1176.67  1176.77
 dbt_tas_reshape                ******* 15.6   228.94   244.27  1056.03  1123.71
 dbt_tas_mm_1N                  9358368 15.5     5.08     5.67  1030.60  1087.63
 dbt_tas_mm_2                   9056112 16.1     8.57     9.56  1031.16  1080.17
 mp_cart_create                 ******* ****   874.84   909.15   960.97   997.83
 dbt_tas_copy                   ******* 12.7   424.16   542.68   780.07   980.86
 dbt_tas_reserve_blocks_index   ******* -4.2   153.64   166.83   900.53   927.19
 dbm_reserve_blocks             ******* -0.8   862.37   890.57   862.37   890.57
 convert_to_new_pgrid           ******* 15.0   434.01   474.52   772.06   836.54
 fm_add_ikp_to_rs                495616  9.0   501.38   564.96   729.41   829.56
 dbt_tas_create_new             ******* 15.3   645.07   685.82   645.07   685.82
 dbt_tas_reserve_blocks_templat ******* 14.0   249.44   302.82   589.63   680.72
 dbt_permute_index              ******* 12.2   512.82   557.65   584.32   633.06
 mp_comm_dup                    ******* 18.6   550.26   567.59   591.61   610.25
 dbt_reserve_blocks_index_array ******* 13.0    58.80    65.14   526.88   578.21
 compute_Sigma_x                      1  7.0     0.00     0.00   565.47   565.63
 dbt_remap                      2085814 11.0   194.64   206.57   498.53   520.46
 dbt_reserve_blocks_index       ******* 14.0    73.10    81.12   473.06   517.95
 fm_to_local_tensor              513000  9.0     6.70     7.18   502.08   502.13
 dbcsr_complete_redistribute    1260034 10.1    21.35    44.79   426.16   482.37
 mp_alltoall_i22                2146715 10.6   396.70   467.33   396.70   467.33
 fm_trafo_rs_to_ikp              255590  9.0   265.03   292.80   412.12   457.61
 mp_comm_split_direct           ******* 18.1   391.58   411.98   421.22   442.65
 mp_comm_free                   *******  2.2   394.24   416.31   394.24   416.31
 copy_dbcsr_to_fm                656041  8.5     3.59     3.79   364.38   370.44
 dbm_copy                       ******* 16.0   338.05   362.03   338.05   362.03
 dbt_tas_reshape_buffer_obtain  ******* 16.6   176.26   189.28   343.86   359.50
 scf_env_do_scf                       1  3.0     0.00     0.00   358.47   358.47
 scf_env_do_scf_inner_loop           22  4.0     0.01     0.02   358.47   358.47
 do_general_diag_kp                  23  5.9     0.43     0.48   351.74   351.75
 qs_scf_new_mos_kp                   22  5.0     0.00     0.00   351.52   351.54
 dbt_tas_reshape_buffer_fill    ******* 16.6   282.39   304.00   282.39   304.00
 dbt_copy_nocomm                ******* 11.0   126.47   157.02   242.18   299.09
 dbt_align_index                ******* 11.5    44.02    51.03   257.53   274.34
 add_ikp_to_rs                  ******* -0.2   233.95   270.73   233.95   270.73
 dbcsr_desymmetrize_deep         886681  8.9     6.74     7.68   261.94   269.76
 global_matrix_to_local_matrix   513000 10.0     4.37     7.58   245.67   266.78
 copy_fm_to_dbcsr                603993  9.7     1.50     1.61   201.38   265.29
 dbt_tas_merge                  9056112 15.1   187.06   202.81   243.60   260.35
 reshape_mm_template            4171628 15.5   136.19   174.65   216.92   257.83
 local_dbt_to_global_fm              91  8.0     0.56     0.63   246.94   246.97
 dbt_destroy                    ******* 11.4   194.04   231.49   205.47   244.22
 dbm_filter                     ******* 14.9   211.23   225.44   211.23   225.44
 dbt_tas_mp_comm                ******* 13.2    24.38    26.07   206.91   215.44
 dbm_scale                      ******* 12.4   186.37   200.34   186.37   200.34
 dbt_communicate_buffer         ******* 13.0   182.22   199.84   182.22   199.84
 add_rs_to_ikp                  *******  0.3   157.61   193.59   157.61   193.59
 dos_pdos_ldos                        1  5.0     0.01     0.02   183.47   184.16
 mp_cart_get                    ******* -0.5   162.87   183.73   162.87   183.73
 mp_comm_size                   *******  1.5   162.44   171.47   162.44   171.47
 dbt_distribution_new_expert    5197638 12.3    27.97    29.35   162.24   169.29
 SOC_ev                            8380  6.0     0.05     0.06   168.99   169.11
 dbm_add                        ******* 15.0   151.42   163.33   151.42   163.33
 compute_W_real_space                 1  7.0     0.30     1.06   156.65   157.53
 dbt_reserve_blocks_template    ******* 12.0    40.09    50.50   115.71   142.07
 dbt_create_3c_R1_R2                 62  8.0    14.33    15.73   127.03   135.62
 dbt_tas_reshape_get_coord      ******* 16.6   118.14   130.56   118.14   130.56
 mp_comm_rank                   *******  1.5   122.07   130.25   122.07   130.25
 rskp_transform                  115320  7.3     1.55   127.96     1.55   127.96
 dbt_create_template            *******  9.0   118.32   126.58   118.32   126.58
 mp_alltoall_i                  ******* -3.6   115.43   123.60   115.43   123.60
 mp_sum_i                       ******* 16.0   117.10   120.44   117.10   120.44
 dbcsr_finalize                 5594241 11.4    20.67    23.98    91.65   116.26
 cp_cfm_heevd                     17129  7.5     0.01     0.01   112.17   112.68
 send_sizes_1                    513000 11.0     0.29     0.32   109.47   112.67
 cp_cfm_heevd_base                17129  8.5   112.16   112.66   112.16   112.66
 send_data                       513000 11.0     0.30     0.34    88.16   110.23
 mp_waitall_1                   3152358 12.0    87.18   110.14    87.18   110.14
 communicate_buffer              513000 12.0     2.02    33.25    87.86   109.93
 local_dbt_to_global_mat         307125  9.0     1.92     2.12    83.69   106.47
 dbt_create_new                 2598819 11.8    18.15    20.05    93.14    98.42
 kpoint_density_transform            22  7.0     0.16     0.18    93.99    94.02
 fm_MWM_R_t_to_local_tensor_W_R      30  8.0     0.08     0.10    91.55    91.55
 mp_cart_sub                    1312161 10.5    90.45    90.65    90.45    90.65
 dbcsr_filter_anytype           2291787 11.0     8.66     9.60    62.78    86.90
 destroy_t_2d                        62  8.0    21.74    25.71    73.67    81.67
 create_and_init_bs_env_for_gw        1  6.0     0.00     0.01    79.73    79.75
 get_V_tr_R                          34  9.0     0.26     0.29    71.38    71.48
 mult_W_with_Minv                    30  8.0     0.03     0.03    70.93    70.94
 rsmat_to_kp                      25140  7.2     0.19     0.20    70.17    70.73
 mp_max_i                       ******* -3.2    56.33    63.28    56.33    63.28
 create_and_init_bs_env               1  5.0     0.00     0.00    62.58    62.60
 compute_cfm_mo_coeff_kp_and_ei       1  6.0     0.01     0.01    62.54    62.54
 local_matrix_to_global_matrix   307125 10.0     0.55     0.66    39.43    62.53
 dbcsr_merge_all                2059692 12.1    31.95    41.11    44.01    55.86
 dbt_create_matrix               513000 10.0     2.86     3.19    52.85    54.50
 mp_sum_dv                       272489  8.9    46.29    54.37    46.29    54.37
 compute_Minv_and_Vsqrt               1  8.0     0.00     0.00    52.07    52.24
 build_2c_coulomb_matrix_kp_sma       2  9.0     0.36     0.47    49.77    49.94
 transform_dmat                   45056  8.0     0.60    49.79     0.60    49.79
 mp_alltoall_d11v               6440145 11.0    14.23    48.00    14.23    48.00
 mp_sum_l                       ******* ****    43.71    47.83    43.71    47.83
 dbt_pgrid_create_expert        5197641 13.3     6.13     6.46    42.02    43.80
 cp_fm_start_copy_general        270472  7.3     1.14     2.04    39.27    40.28
 dbt_tas_reshape_alltoall       ******* 16.6    20.62    21.94    36.86    39.01
 dbt_tas_reshape_communicate_bu ******* 16.6    21.82    25.24    34.37    37.46
 set_blocks                      307125 11.0     3.56     5.79    18.63    36.75
 cp_cfm_geeig_canon                4190  7.0     0.02     0.02    36.61    36.73
 soc                                  1  5.0     0.00     0.00    35.05    35.05
 mp_allgather_i                  540944  8.3    31.81    34.94    31.81    34.94
 H_KS_spinor_kp                       1  6.0     0.03     0.03    34.93    34.94
 setup_parallelization_Delta_R        1  7.0     0.00     0.00    34.16    34.16
 compute_n_tensor_ops_Delta_R         1  8.0    10.09    13.60    34.15    34.15
 dbt_nd_mp_comm                 2598814 11.8     3.75     4.17    29.60    31.08
 mp_bcast_i                     ******* 18.1    25.39    30.83    25.39    30.83
 dbcsr_iterator_start           ******* 11.3    26.95    27.52    28.89    29.54
 mp_alltoall_i11v               4666783 10.9    19.66    29.34    19.66    29.34
 get_data                        513000 11.0     8.29    26.15     9.03    27.02
 build_2c_coulomb_matrix_kp_sma  294912 10.0    23.82    24.75    23.82    24.75
 dbt_tas_communicate_buffer     ******* 17.3    23.31    24.72    23.31    24.72
 dbcsr_work_create              2946373 10.9    13.28    16.85    19.83    24.46
 dbcsr_work_destroy_all         2946373 11.7    12.36    15.87    19.04    23.84
 dbt_tas_replicate_communicate_ ******* 15.9    12.68    14.29    21.26    22.94
 send_sizes_2                    513000 11.0     0.28     0.30    19.27    22.51
 dbt_tas_replicate_alltoall     ******* 15.9    11.07    12.83    19.09    22.33
 trafo_V_xc_R_to_kp                   1  7.0     0.02     0.02    22.02    22.03
 mp_dims_create                 ******* 14.4    19.12    21.93    19.12    21.93
 mp_sum_iv                         8410  9.0     9.23    18.86     9.23    18.86
 trafo_rs_to_ikp                   6592  8.3     6.84     7.63    17.37    18.70
 copy_fm_to_dbcsr_bc             603993 10.7     5.31     5.54    18.05    18.58
 compute_3c_integrals                 1  7.0     0.25     0.28    17.23    17.24
 dbt_copy_matrix_to_tensor       513000 10.0     5.79     6.21    16.17    16.94
 mp_cart_rank                   ******* 15.9    14.46    16.17    14.46    16.17
 dbt_distribution_destroy       5197638 12.3    11.84    12.72    14.90    16.09
 dbcsr_iterator_stop            ******* 11.3    13.76    14.08    15.22    15.56
 dbcsr_create_new               4063632 10.5    12.48    13.07    14.67    15.38
 dbcsr_data_release             ******* 12.5    12.06    15.05    12.06    15.05
 add_V_L                         294912 10.0     0.89    14.77     0.89    14.77
 build_3c_integrals                   1  8.0     9.28    10.71    13.27    14.75
 dbt_buffer_get_index           ******* 16.8    12.56    13.96    12.56    13.96
 compute_proj_mo_on_kind           4190  6.0     0.04     0.04    13.54    13.81
 mp_sum_dm                       294933 10.0    11.13    13.04    11.13    13.04
 reserve_blocks                  513000 11.0     1.19     1.32    12.42    12.83
 mp_isend_dv                    ******* 11.8     0.31    12.72     0.31    12.72
 mp_isend_im2                   ******* 12.9     0.21    12.36     0.21    12.36
 add_ikp_to_all_rs                 5312  8.2     5.38     6.13    11.35    12.30
 comm_size                       307125 11.0     0.23     0.32    11.47    12.02
 dbcsr_data_new                 ******* 11.9     9.32    10.90     9.32    10.90
 dbt_tas_merge_alltoall         9056112 16.1     5.59     6.26     9.76    10.68
 copy_dbcsr_to_fm_bc             656041  9.5     4.14     4.37    10.04    10.29
 fm_to_local_array                  934  8.1     1.74     2.05    10.12    10.20
 dbt_create_2c_R                     98  8.0     2.06     7.48     4.01     9.42
 tree_to_linear_d               1476953 13.1     8.04     9.39     8.04     9.39
 get_Minv_Vtr_Minv_R                  1  8.0     0.00     0.00     9.09     9.19
 dbt_tas_merge_communicate_buff 9056112 16.1     5.84     6.57     8.03     8.74
 dbcsr_destroy                  3712457 10.1     4.17     4.55     7.20     8.12
 mp_sum_dm3                        1017  9.0     6.48     7.90     6.48     7.90
 dbt_reserve_blocks_matrix_to_t  513000 11.0     1.98     2.12     5.88     6.11
 mp_bcast_iv                    1081908  8.3     4.75     5.38     4.75     5.38
 comm_data                       307125 11.0     0.41     2.31     0.74     5.15
 dbcsr_reserve_blocks           1908741 12.3     2.57     4.15     3.31     5.15
 fill_buffer                     307125 11.0     4.21     4.60     4.62     5.02
 dbt_copy_tensor_to_matrix       307125 10.0     1.49     1.58     4.20     4.42
 get_coord                       307125 11.0     1.97     2.17     3.41     4.24
 hybrid_alltoall_any             886681  9.9     2.12     2.22     3.48     3.95
 dbcsr_reserve_all_blocks        911118 11.8     0.64     0.70     2.28     3.84
 -------------------------------------------------------------------------------

 The number of warnings for this run is : 0
 
 -------------------------------------------------------------------------------
  **** **** ******  **  PROGRAM ENDED AT                 2025-02-02 16:21:46.870
 ***** ** ***  *** **   PROGRAM RAN ON                                 n2lcn0107
 **    ****   ******    PROGRAM RAN BY                                  metdyn02
 ***** **    ** ** **   PROGRAM PROCESS ID                               1759233
  **** **  *******  **  PROGRAM STOPPED IN /scratch/hpc-prf-metdyn/metdyn02_Remi
                                           /08_3D/01_Si
