SIRIUS 7.5.2, git hash: https://api.github.com/repos/electronic-structure/SIRIUS/git/ref/tags/v7.5.2
 DBCSR| CPU Multiplication driver                                           XSMM (U)
 DBCSR| Multrec recursion limit                                              512 (U)
 DBCSR| Multiplication stack size                                           1000 (D)
 DBCSR| Maximum elements for images                                    UNLIMITED (U)
 DBCSR| Multiplicative factor virtual images                                   1 (U)
 DBCSR| Use multiplication densification                                       T (D)
 DBCSR| Multiplication size stacks                                             3 (U)
 DBCSR| Use memory pool for CPU allocation                                     F (U)
 DBCSR| Number of 3D layers                                               SINGLE (U)
 DBCSR| Use MPI memory allocation                                              F (U)
 DBCSR| Use RMA algorithm                                                      F (U)
 DBCSR| Use Communication thread                                               T (U)
 DBCSR| Communication thread load                                             30 (D)
 DBCSR| MPI: My process id                                                     0
 DBCSR| MPI: Number of processes                                             128
 DBCSR| OMP: Current number of threads                                        16
 DBCSR| OMP: Max number of threads                                            16
 DBCSR| Split modifier for TAS multiplication algorithm                  1.0E+00 (U)


  **** **** ******  **  PROGRAM STARTED AT               2025-02-26 12:34:14.535
 ***** ** ***  *** **   PROGRAM STARTED ON                n2lcn0108.ab2021.local
 **    ****   ******    PROGRAM STARTED BY                              metdyn02
 ***** **    ** ** **   PROGRAM PROCESS ID                                930958
  **** **  *******  **  PROGRAM STARTED IN /scratch/hpc-prf-metdyn/metdyn02_Remi
                                           /08_3D/03_SiC

 CP2K| version string:                 CP2K version 2025.1 (Development Version)
 CP2K| source code revision number:                                  git:47877ba
 CP2K| cp2kflags: omp libint fftw3 libxc libgrpp elpa parallel scalapack mpi_f08
 CP2K|             cosma xsmm plumed2 spglib sirius libvori libbqb libvdwxc hdf5
 CP2K| is freely available from                            https://www.cp2k.org/
 CP2K| Program compiled at                          Thu Feb 20 16:27:16 CET 2025
 CP2K| Program compiled on                                              n2login1
 CP2K| Program compiled for                                                local
 CP2K| Data directory path    /opt/software/pc2/EB-SW/software/CP2K/2024.1-foss-
 CP2K| Input file name                                                    GW.inp

 GLOBAL| Force Environment number                                              1
 GLOBAL| Basis set file name            /scratch/hpc-prf-metdyn/metdyn02_Remi/BA
 GLOBAL| Potential file name            /pc2/groups/hpc-prf-metdyn/metdyn02_Remi
 GLOBAL| MM Potential file name                                     MM_POTENTIAL
 GLOBAL| Coordinate file name                                      __STD_INPUT__
 GLOBAL| Method name                                                        CP2K
 GLOBAL| Project name                                                        SiC
 GLOBAL| Run type                                                         ENERGY
 GLOBAL| FFT library                                                       FFTW3
 GLOBAL| Diagonalization library                                            ELPA
 GLOBAL| DGEMM library                                                      BLAS
 GLOBAL| Minimum number of eigenvectors for ELPA usage                        16
 GLOBAL| Orthonormality check for eigenvectors                          DISABLED
 GLOBAL| Matrix multiplication library                                     COSMA
 GLOBAL| All-to-all communication in single precision                          F
 GLOBAL| FFTs using library dependent lengths                                  F
 GLOBAL| Grid backend                                                       AUTO
 GLOBAL| Global print level                                               MEDIUM
 GLOBAL| MPI I/O enabled                                                       T
 GLOBAL| Total number of message passing processes                           128
 GLOBAL| Number of threads for this process                                   16
 GLOBAL| This output is from process                                           0
 GLOBAL| OpenMP stack size per thread (OMP_STACKSIZE)                    default
 GLOBAL| CPU model name                          AMD EPYC 7763 64-Core Processor
 GLOBAL| CPUID                                                              1002

 MEMORY| system memory details [Kb]
 MEMORY|                        rank 0           min           max       average
 MEMORY| MemTotal           1056622248    1056622244    1056622248    1056622246
 MEMORY| MemFree            1043189696    1035376484    1046640324    1041930690
 MEMORY| Buffers                 42104         34692        223792        132326
 MEMORY| Cached                7040244       4341920      12916604       7124020
 MEMORY| Slab                  1563308       1105224       3164284       2272526
 MEMORY| SReclaimable           291316        219980       1115880        580420
 MEMORY| MemLikelyFree      1050563360    1048974508    1051322468    1049767457


 *** Fundamental physical constants (SI units) ***

 *** Literature: B. J. Mohr and B. N. Taylor,
 ***             CODATA recommended values of the fundamental physical
 ***             constants: 2006, Web Version 5.1
 ***             http://physics.nist.gov/constants

 Speed of light in vacuum [m/s]                             2.99792458000000E+08
 Magnetic constant or permeability of vacuum [N/A**2]       1.25663706143592E-06
 Electric constant or permittivity of vacuum [F/m]          8.85418781762039E-12
 Planck constant (h) [J*s]                                  6.62606896000000E-34
 Planck constant (h-bar) [J*s]                              1.05457162825177E-34
 Elementary charge [C]                                      1.60217648700000E-19
 Electron mass [kg]                                         9.10938215000000E-31
 Electron g factor [ ]                                     -2.00231930436220E+00
 Proton mass [kg]                                           1.67262163700000E-27
 Fine-structure constant                                    7.29735253760000E-03
 Rydberg constant [1/m]                                     1.09737315685270E+07
 Avogadro constant [1/mol]                                  6.02214179000000E+23
 Boltzmann constant [J/K]                                   1.38065040000000E-23
 Atomic mass unit [kg]                                      1.66053878200000E-27
 Bohr radius [m]                                            5.29177208590000E-11

 *** Conversion factors ***

 [u] -> [a.u.]                                              1.82288848426455E+03
 [Angstrom] -> [Bohr] = [a.u.]                              1.88972613288564E+00
 [a.u.] = [Bohr] -> [Angstrom]                              5.29177208590000E-01
 [a.u.] -> [s]                                              2.41888432650478E-17
 [a.u.] -> [fs]                                             2.41888432650478E-02
 [a.u.] -> [J]                                              4.35974393937059E-18
 [a.u.] -> [N]                                              8.23872205491840E-08
 [a.u.] -> [K]                                              3.15774647902944E+05
 [a.u.] -> [kJ/mol]                                         2.62549961709828E+03
 [a.u.] -> [kcal/mol]                                       6.27509468713739E+02
 [a.u.] -> [Pa]                                             2.94210107994716E+13
 [a.u.] -> [bar]                                            2.94210107994716E+08
 [a.u.] -> [atm]                                            2.90362800883016E+08
 [a.u.] -> [eV]                                             2.72113838565563E+01
 [a.u.] -> [Hz]                                             6.57968392072181E+15
 [a.u.] -> [1/cm] (wave numbers)                            2.19474631370540E+05
 [a.u./Bohr**2] -> [1/cm]                                   5.14048714338585E+03
 

 CELL_TOP| Volume [angstrom^3]:                                        20.720464
 CELL_TOP| Vector a [angstrom     2.180     0.000     2.180   |a| =     3.082986
 CELL_TOP| Vector b [angstrom     2.180     2.180     0.000   |b| =     3.082986
 CELL_TOP| Vector c [angstrom     0.000     2.180     2.180   |c| =     3.082986
 CELL_TOP| Angle (b,c), alpha [degree]:                                60.000000
 CELL_TOP| Angle (a,c), beta  [degree]:                                60.000000
 CELL_TOP| Angle (a,b), gamma [degree]:                                60.000000
 CELL_TOP| Numerically orthorhombic:                                          NO
 CELL_TOP| Periodicity                                                       XYZ

 GENERATE|  Preliminary Number of Bonds generated:                             0
 GENERATE|  Achieved consistency in connectivity generation.

 CELL| Volume [angstrom^3]:                                            20.720464
 CELL| Vector a [angstrom]:       2.180     0.000     2.180   |a| =     3.082986
 CELL| Vector b [angstrom]:       2.180     2.180     0.000   |b| =     3.082986
 CELL| Vector c [angstrom]:       0.000     2.180     2.180   |c| =     3.082986
 CELL| Angle (b,c), alpha [degree]:                                    60.000000
 CELL| Angle (a,c), beta  [degree]:                                    60.000000
 CELL| Angle (a,b), gamma [degree]:                                    60.000000
 CELL| Numerically orthorhombic:                                              NO
 CELL| Periodicity                                                           XYZ

 CELL_REF| Volume [angstrom^3]:                                        20.720464
 CELL_REF| Vector a [angstrom     2.180     0.000     2.180   |a| =     3.082986
 CELL_REF| Vector b [angstrom     2.180     2.180     0.000   |b| =     3.082986
 CELL_REF| Vector c [angstrom     0.000     2.180     2.180   |c| =     3.082986
 CELL_REF| Angle (b,c), alpha [degree]:                                60.000000
 CELL_REF| Angle (a,c), beta  [degree]:                                60.000000
 CELL_REF| Angle (a,b), gamma [degree]:                                60.000000
 CELL_REF| Numerically orthorhombic:                                          NO
 CELL_REF| Periodicity                                                       XYZ

 *******************************************************************************
                                    Kpoints
 *******************************************************************************
 BRILLOUIN| K-point scheme                                        Monkhorst-Pack
 BRILLOUIN| K-Point grid                                            24   24   24
 BRILLOUIN| Accuracy in Symmetry determination                      0.100000E-05
 BRILLOUIN| K-Point point group symmetrization                               OFF
 BRILLOUIN| Wavefunction type                                            COMPLEX
 BRILLOUIN| List of Kpoints [2 Pi/Bohr]                                     6912
 BRILLOUIN| Number           Weight            X              Y              Z
 BRILLOUIN|     1           0.00014       -0.47917       -0.47917       -0.47917
 BRILLOUIN|     2           0.00014       -0.47917       -0.47917       -0.43750
 BRILLOUIN|     3           0.00014       -0.47917       -0.47917       -0.39583
 BRILLOUIN|     4           0.00014       -0.47917       -0.47917       -0.35417
 BRILLOUIN|     5           0.00014       -0.47917       -0.47917       -0.31250
 BRILLOUIN|     6           0.00014       -0.47917       -0.47917       -0.27083
 BRILLOUIN|     7           0.00014       -0.47917       -0.47917       -0.22917
 BRILLOUIN|     8           0.00014       -0.47917       -0.47917       -0.18750
 BRILLOUIN|     9           0.00014       -0.47917       -0.47917       -0.14583
 BRILLOUIN|    10           0.00014       -0.47917       -0.47917       -0.10417
 BRILLOUIN|    11           0.00014       -0.47917       -0.47917       -0.06250
 BRILLOUIN|    12           0.00014       -0.47917       -0.47917       -0.02083
 BRILLOUIN|    13           0.00014       -0.47917       -0.47917        0.02083
 BRILLOUIN|    14           0.00014       -0.47917       -0.47917        0.06250
 BRILLOUIN|    15           0.00014       -0.47917       -0.47917        0.10417
 BRILLOUIN|    16           0.00014       -0.47917       -0.47917        0.14583
 BRILLOUIN|    17           0.00014       -0.47917       -0.47917        0.18750
 BRILLOUIN|    18           0.00014       -0.47917       -0.47917        0.22917
 BRILLOUIN|    19           0.00014       -0.47917       -0.47917        0.27083
 BRILLOUIN|    20           0.00014       -0.47917       -0.47917        0.31250
 BRILLOUIN|    21           0.00014       -0.47917       -0.47917        0.35417
 BRILLOUIN|    22           0.00014       -0.47917       -0.47917        0.39583
 BRILLOUIN|    23           0.00014       -0.47917       -0.47917        0.43750
 BRILLOUIN|    24           0.00014       -0.47917       -0.47917        0.47917
 BRILLOUIN|    25           0.00014       -0.47917       -0.43750       -0.47917
 BRILLOUIN|    26           0.00014       -0.47917       -0.43750       -0.43750
 BRILLOUIN|    27           0.00014       -0.47917       -0.43750       -0.39583
 BRILLOUIN|    28           0.00014       -0.47917       -0.43750       -0.35417
 BRILLOUIN|    29           0.00014       -0.47917       -0.43750       -0.31250
 BRILLOUIN|    30           0.00014       -0.47917       -0.43750       -0.27083
 BRILLOUIN|    31           0.00014       -0.47917       -0.43750       -0.22917
 BRILLOUIN|    32           0.00014       -0.47917       -0.43750       -0.18750
 BRILLOUIN|    33           0.00014       -0.47917       -0.43750       -0.14583
 BRILLOUIN|    34           0.00014       -0.47917       -0.43750       -0.10417
 BRILLOUIN|    35           0.00014       -0.47917       -0.43750       -0.06250
 BRILLOUIN|    36           0.00014       -0.47917       -0.43750       -0.02083
 BRILLOUIN|    37           0.00014       -0.47917       -0.43750        0.02083
 BRILLOUIN|    38           0.00014       -0.47917       -0.43750        0.06250
 BRILLOUIN|    39           0.00014       -0.47917       -0.43750        0.10417
 BRILLOUIN|    40           0.00014       -0.47917       -0.43750        0.14583
 BRILLOUIN|    41           0.00014       -0.47917       -0.43750        0.18750
 BRILLOUIN|    42           0.00014       -0.47917       -0.43750        0.22917
 BRILLOUIN|    43           0.00014       -0.47917       -0.43750        0.27083
 BRILLOUIN|    44           0.00014       -0.47917       -0.43750        0.31250
 BRILLOUIN|    45           0.00014       -0.47917       -0.43750        0.35417
 BRILLOUIN|    46           0.00014       -0.47917       -0.43750        0.39583
 BRILLOUIN|    47           0.00014       -0.47917       -0.43750        0.43750
 BRILLOUIN|    48           0.00014       -0.47917       -0.43750        0.47917
 BRILLOUIN|    49           0.00014       -0.47917       -0.39583       -0.47917
 BRILLOUIN|    50           0.00014       -0.47917       -0.39583       -0.43750
 BRILLOUIN|    51           0.00014       -0.47917       -0.39583       -0.39583
 BRILLOUIN|    52           0.00014       -0.47917       -0.39583       -0.35417
 BRILLOUIN|    53           0.00014       -0.47917       -0.39583       -0.31250
 BRILLOUIN|    54           0.00014       -0.47917       -0.39583       -0.27083
 BRILLOUIN|    55           0.00014       -0.47917       -0.39583       -0.22917
 BRILLOUIN|    56           0.00014       -0.47917       -0.39583       -0.18750
 BRILLOUIN|    57           0.00014       -0.47917       -0.39583       -0.14583
 BRILLOUIN|    58           0.00014       -0.47917       -0.39583       -0.10417
 BRILLOUIN|    59           0.00014       -0.47917       -0.39583       -0.06250
 BRILLOUIN|    60           0.00014       -0.47917       -0.39583       -0.02083
 BRILLOUIN|    61           0.00014       -0.47917       -0.39583        0.02083
 BRILLOUIN|    62           0.00014       -0.47917       -0.39583        0.06250
 BRILLOUIN|    63           0.00014       -0.47917       -0.39583        0.10417
 BRILLOUIN|    64           0.00014       -0.47917       -0.39583        0.14583
 BRILLOUIN|    65           0.00014       -0.47917       -0.39583        0.18750
 BRILLOUIN|    66           0.00014       -0.47917       -0.39583        0.22917
 BRILLOUIN|    67           0.00014       -0.47917       -0.39583        0.27083
 BRILLOUIN|    68           0.00014       -0.47917       -0.39583        0.31250
 BRILLOUIN|    69           0.00014       -0.47917       -0.39583        0.35417
 BRILLOUIN|    70           0.00014       -0.47917       -0.39583        0.39583
 BRILLOUIN|    71           0.00014       -0.47917       -0.39583        0.43750
 BRILLOUIN|    72           0.00014       -0.47917       -0.39583        0.47917
 BRILLOUIN|    73           0.00014       -0.47917       -0.35417       -0.47917
 BRILLOUIN|    74           0.00014       -0.47917       -0.35417       -0.43750
 BRILLOUIN|    75           0.00014       -0.47917       -0.35417       -0.39583
 BRILLOUIN|    76           0.00014       -0.47917       -0.35417       -0.35417
 BRILLOUIN|    77           0.00014       -0.47917       -0.35417       -0.31250
 BRILLOUIN|    78           0.00014       -0.47917       -0.35417       -0.27083
 BRILLOUIN|    79           0.00014       -0.47917       -0.35417       -0.22917
 BRILLOUIN|    80           0.00014       -0.47917       -0.35417       -0.18750
 BRILLOUIN|    81           0.00014       -0.47917       -0.35417       -0.14583
 BRILLOUIN|    82           0.00014       -0.47917       -0.35417       -0.10417
 BRILLOUIN|    83           0.00014       -0.47917       -0.35417       -0.06250
 BRILLOUIN|    84           0.00014       -0.47917       -0.35417       -0.02083
 BRILLOUIN|    85           0.00014       -0.47917       -0.35417        0.02083
 BRILLOUIN|    86           0.00014       -0.47917       -0.35417        0.06250
 BRILLOUIN|    87           0.00014       -0.47917       -0.35417        0.10417
 BRILLOUIN|    88           0.00014       -0.47917       -0.35417        0.14583
 BRILLOUIN|    89           0.00014       -0.47917       -0.35417        0.18750
 BRILLOUIN|    90           0.00014       -0.47917       -0.35417        0.22917
 BRILLOUIN|    91           0.00014       -0.47917       -0.35417        0.27083
 BRILLOUIN|    92           0.00014       -0.47917       -0.35417        0.31250
 BRILLOUIN|    93           0.00014       -0.47917       -0.35417        0.35417
 BRILLOUIN|    94           0.00014       -0.47917       -0.35417        0.39583
 BRILLOUIN|    95           0.00014       -0.47917       -0.35417        0.43750
 BRILLOUIN|    96           0.00014       -0.47917       -0.35417        0.47917
 BRILLOUIN|    97           0.00014       -0.47917       -0.31250       -0.47917
 BRILLOUIN|    98           0.00014       -0.47917       -0.31250       -0.43750
 BRILLOUIN|    99           0.00014       -0.47917       -0.31250       -0.39583
 BRILLOUIN|   100           0.00014       -0.47917       -0.31250       -0.35417
 BRILLOUIN|   101           0.00014       -0.47917       -0.31250       -0.31250
 BRILLOUIN|   102           0.00014       -0.47917       -0.31250       -0.27083
 BRILLOUIN|   103           0.00014       -0.47917       -0.31250       -0.22917
 BRILLOUIN|   104           0.00014       -0.47917       -0.31250       -0.18750
 BRILLOUIN|   105           0.00014       -0.47917       -0.31250       -0.14583
 BRILLOUIN|   106           0.00014       -0.47917       -0.31250       -0.10417
 BRILLOUIN|   107           0.00014       -0.47917       -0.31250       -0.06250
 BRILLOUIN|   108           0.00014       -0.47917       -0.31250       -0.02083
 BRILLOUIN|   109           0.00014       -0.47917       -0.31250        0.02083
 BRILLOUIN|   110           0.00014       -0.47917       -0.31250        0.06250
 BRILLOUIN|   111           0.00014       -0.47917       -0.31250        0.10417
 BRILLOUIN|   112           0.00014       -0.47917       -0.31250        0.14583
 BRILLOUIN|   113           0.00014       -0.47917       -0.31250        0.18750
 BRILLOUIN|   114           0.00014       -0.47917       -0.31250        0.22917
 BRILLOUIN|   115           0.00014       -0.47917       -0.31250        0.27083
 BRILLOUIN|   116           0.00014       -0.47917       -0.31250        0.31250
 BRILLOUIN|   117           0.00014       -0.47917       -0.31250        0.35417
 BRILLOUIN|   118           0.00014       -0.47917       -0.31250        0.39583
 BRILLOUIN|   119           0.00014       -0.47917       -0.31250        0.43750
 BRILLOUIN|   120           0.00014       -0.47917       -0.31250        0.47917
 BRILLOUIN|   121           0.00014       -0.47917       -0.27083       -0.47917
 BRILLOUIN|   122           0.00014       -0.47917       -0.27083       -0.43750
 BRILLOUIN|   123           0.00014       -0.47917       -0.27083       -0.39583
 BRILLOUIN|   124           0.00014       -0.47917       -0.27083       -0.35417
 BRILLOUIN|   125           0.00014       -0.47917       -0.27083       -0.31250
 BRILLOUIN|   126           0.00014       -0.47917       -0.27083       -0.27083
 BRILLOUIN|   127           0.00014       -0.47917       -0.27083       -0.22917
 BRILLOUIN|   128           0.00014       -0.47917       -0.27083       -0.18750
 BRILLOUIN|   129           0.00014       -0.47917       -0.27083       -0.14583
 BRILLOUIN|   130           0.00014       -0.47917       -0.27083       -0.10417
 BRILLOUIN|   131           0.00014       -0.47917       -0.27083       -0.06250
 BRILLOUIN|   132           0.00014       -0.47917       -0.27083       -0.02083
 BRILLOUIN|   133           0.00014       -0.47917       -0.27083        0.02083
 BRILLOUIN|   134           0.00014       -0.47917       -0.27083        0.06250
 BRILLOUIN|   135           0.00014       -0.47917       -0.27083        0.10417
 BRILLOUIN|   136           0.00014       -0.47917       -0.27083        0.14583
 BRILLOUIN|   137           0.00014       -0.47917       -0.27083        0.18750
 BRILLOUIN|   138           0.00014       -0.47917       -0.27083        0.22917
 BRILLOUIN|   139           0.00014       -0.47917       -0.27083        0.27083
 BRILLOUIN|   140           0.00014       -0.47917       -0.27083        0.31250
 BRILLOUIN|   141           0.00014       -0.47917       -0.27083        0.35417
 BRILLOUIN|   142           0.00014       -0.47917       -0.27083        0.39583
 BRILLOUIN|   143           0.00014       -0.47917       -0.27083        0.43750
 BRILLOUIN|   144           0.00014       -0.47917       -0.27083        0.47917
 BRILLOUIN|   145           0.00014       -0.47917       -0.22917       -0.47917
 BRILLOUIN|   146           0.00014       -0.47917       -0.22917       -0.43750
 BRILLOUIN|   147           0.00014       -0.47917       -0.22917       -0.39583
 BRILLOUIN|   148           0.00014       -0.47917       -0.22917       -0.35417
 BRILLOUIN|   149           0.00014       -0.47917       -0.22917       -0.31250
 BRILLOUIN|   150           0.00014       -0.47917       -0.22917       -0.27083
 BRILLOUIN|   151           0.00014       -0.47917       -0.22917       -0.22917
 BRILLOUIN|   152           0.00014       -0.47917       -0.22917       -0.18750
 BRILLOUIN|   153           0.00014       -0.47917       -0.22917       -0.14583
 BRILLOUIN|   154           0.00014       -0.47917       -0.22917       -0.10417
 BRILLOUIN|   155           0.00014       -0.47917       -0.22917       -0.06250
 BRILLOUIN|   156           0.00014       -0.47917       -0.22917       -0.02083
 BRILLOUIN|   157           0.00014       -0.47917       -0.22917        0.02083
 BRILLOUIN|   158           0.00014       -0.47917       -0.22917        0.06250
 BRILLOUIN|   159           0.00014       -0.47917       -0.22917        0.10417
 BRILLOUIN|   160           0.00014       -0.47917       -0.22917        0.14583
 BRILLOUIN|   161           0.00014       -0.47917       -0.22917        0.18750
 BRILLOUIN|   162           0.00014       -0.47917       -0.22917        0.22917
 BRILLOUIN|   163           0.00014       -0.47917       -0.22917        0.27083
 BRILLOUIN|   164           0.00014       -0.47917       -0.22917        0.31250
 BRILLOUIN|   165           0.00014       -0.47917       -0.22917        0.35417
 BRILLOUIN|   166           0.00014       -0.47917       -0.22917        0.39583
 BRILLOUIN|   167           0.00014       -0.47917       -0.22917        0.43750
 BRILLOUIN|   168           0.00014       -0.47917       -0.22917        0.47917
 BRILLOUIN|   169           0.00014       -0.47917       -0.18750       -0.47917
 BRILLOUIN|   170           0.00014       -0.47917       -0.18750       -0.43750
 BRILLOUIN|   171           0.00014       -0.47917       -0.18750       -0.39583
 BRILLOUIN|   172           0.00014       -0.47917       -0.18750       -0.35417
 BRILLOUIN|   173           0.00014       -0.47917       -0.18750       -0.31250
 BRILLOUIN|   174           0.00014       -0.47917       -0.18750       -0.27083
 BRILLOUIN|   175           0.00014       -0.47917       -0.18750       -0.22917
 BRILLOUIN|   176           0.00014       -0.47917       -0.18750       -0.18750
 BRILLOUIN|   177           0.00014       -0.47917       -0.18750       -0.14583
 BRILLOUIN|   178           0.00014       -0.47917       -0.18750       -0.10417
 BRILLOUIN|   179           0.00014       -0.47917       -0.18750       -0.06250
 BRILLOUIN|   180           0.00014       -0.47917       -0.18750       -0.02083
 BRILLOUIN|   181           0.00014       -0.47917       -0.18750        0.02083
 BRILLOUIN|   182           0.00014       -0.47917       -0.18750        0.06250
 BRILLOUIN|   183           0.00014       -0.47917       -0.18750        0.10417
 BRILLOUIN|   184           0.00014       -0.47917       -0.18750        0.14583
 BRILLOUIN|   185           0.00014       -0.47917       -0.18750        0.18750
 BRILLOUIN|   186           0.00014       -0.47917       -0.18750        0.22917
 BRILLOUIN|   187           0.00014       -0.47917       -0.18750        0.27083
 BRILLOUIN|   188           0.00014       -0.47917       -0.18750        0.31250
 BRILLOUIN|   189           0.00014       -0.47917       -0.18750        0.35417
 BRILLOUIN|   190           0.00014       -0.47917       -0.18750        0.39583
 BRILLOUIN|   191           0.00014       -0.47917       -0.18750        0.43750
 BRILLOUIN|   192           0.00014       -0.47917       -0.18750        0.47917
 BRILLOUIN|   193           0.00014       -0.47917       -0.14583       -0.47917
 BRILLOUIN|   194           0.00014       -0.47917       -0.14583       -0.43750
 BRILLOUIN|   195           0.00014       -0.47917       -0.14583       -0.39583
 BRILLOUIN|   196           0.00014       -0.47917       -0.14583       -0.35417
 BRILLOUIN|   197           0.00014       -0.47917       -0.14583       -0.31250
 BRILLOUIN|   198           0.00014       -0.47917       -0.14583       -0.27083
 BRILLOUIN|   199           0.00014       -0.47917       -0.14583       -0.22917
 BRILLOUIN|   200           0.00014       -0.47917       -0.14583       -0.18750
 BRILLOUIN|   201           0.00014       -0.47917       -0.14583       -0.14583
 BRILLOUIN|   202           0.00014       -0.47917       -0.14583       -0.10417
 BRILLOUIN|   203           0.00014       -0.47917       -0.14583       -0.06250
 BRILLOUIN|   204           0.00014       -0.47917       -0.14583       -0.02083
 BRILLOUIN|   205           0.00014       -0.47917       -0.14583        0.02083
 BRILLOUIN|   206           0.00014       -0.47917       -0.14583        0.06250
 BRILLOUIN|   207           0.00014       -0.47917       -0.14583        0.10417
 BRILLOUIN|   208           0.00014       -0.47917       -0.14583        0.14583
 BRILLOUIN|   209           0.00014       -0.47917       -0.14583        0.18750
 BRILLOUIN|   210           0.00014       -0.47917       -0.14583        0.22917
 BRILLOUIN|   211           0.00014       -0.47917       -0.14583        0.27083
 BRILLOUIN|   212           0.00014       -0.47917       -0.14583        0.31250
 BRILLOUIN|   213           0.00014       -0.47917       -0.14583        0.35417
 BRILLOUIN|   214           0.00014       -0.47917       -0.14583        0.39583
 BRILLOUIN|   215           0.00014       -0.47917       -0.14583        0.43750
 BRILLOUIN|   216           0.00014       -0.47917       -0.14583        0.47917
 BRILLOUIN|   217           0.00014       -0.47917       -0.10417       -0.47917
 BRILLOUIN|   218           0.00014       -0.47917       -0.10417       -0.43750
 BRILLOUIN|   219           0.00014       -0.47917       -0.10417       -0.39583
 BRILLOUIN|   220           0.00014       -0.47917       -0.10417       -0.35417
 BRILLOUIN|   221           0.00014       -0.47917       -0.10417       -0.31250
 BRILLOUIN|   222           0.00014       -0.47917       -0.10417       -0.27083
 BRILLOUIN|   223           0.00014       -0.47917       -0.10417       -0.22917
 BRILLOUIN|   224           0.00014       -0.47917       -0.10417       -0.18750
 BRILLOUIN|   225           0.00014       -0.47917       -0.10417       -0.14583
 BRILLOUIN|   226           0.00014       -0.47917       -0.10417       -0.10417
 BRILLOUIN|   227           0.00014       -0.47917       -0.10417       -0.06250
 BRILLOUIN|   228           0.00014       -0.47917       -0.10417       -0.02083
 BRILLOUIN|   229           0.00014       -0.47917       -0.10417        0.02083
 BRILLOUIN|   230           0.00014       -0.47917       -0.10417        0.06250
 BRILLOUIN|   231           0.00014       -0.47917       -0.10417        0.10417
 BRILLOUIN|   232           0.00014       -0.47917       -0.10417        0.14583
 BRILLOUIN|   233           0.00014       -0.47917       -0.10417        0.18750
 BRILLOUIN|   234           0.00014       -0.47917       -0.10417        0.22917
 BRILLOUIN|   235           0.00014       -0.47917       -0.10417        0.27083
 BRILLOUIN|   236           0.00014       -0.47917       -0.10417        0.31250
 BRILLOUIN|   237           0.00014       -0.47917       -0.10417        0.35417
 BRILLOUIN|   238           0.00014       -0.47917       -0.10417        0.39583
 BRILLOUIN|   239           0.00014       -0.47917       -0.10417        0.43750
 BRILLOUIN|   240           0.00014       -0.47917       -0.10417        0.47917
 BRILLOUIN|   241           0.00014       -0.47917       -0.06250       -0.47917
 BRILLOUIN|   242           0.00014       -0.47917       -0.06250       -0.43750
 BRILLOUIN|   243           0.00014       -0.47917       -0.06250       -0.39583
 BRILLOUIN|   244           0.00014       -0.47917       -0.06250       -0.35417
 BRILLOUIN|   245           0.00014       -0.47917       -0.06250       -0.31250
 BRILLOUIN|   246           0.00014       -0.47917       -0.06250       -0.27083
 BRILLOUIN|   247           0.00014       -0.47917       -0.06250       -0.22917
 BRILLOUIN|   248           0.00014       -0.47917       -0.06250       -0.18750
 BRILLOUIN|   249           0.00014       -0.47917       -0.06250       -0.14583
 BRILLOUIN|   250           0.00014       -0.47917       -0.06250       -0.10417
 BRILLOUIN|   251           0.00014       -0.47917       -0.06250       -0.06250
 BRILLOUIN|   252           0.00014       -0.47917       -0.06250       -0.02083
 BRILLOUIN|   253           0.00014       -0.47917       -0.06250        0.02083
 BRILLOUIN|   254           0.00014       -0.47917       -0.06250        0.06250
 BRILLOUIN|   255           0.00014       -0.47917       -0.06250        0.10417
 BRILLOUIN|   256           0.00014       -0.47917       -0.06250        0.14583
 BRILLOUIN|   257           0.00014       -0.47917       -0.06250        0.18750
 BRILLOUIN|   258           0.00014       -0.47917       -0.06250        0.22917
 BRILLOUIN|   259           0.00014       -0.47917       -0.06250        0.27083
 BRILLOUIN|   260           0.00014       -0.47917       -0.06250        0.31250
 BRILLOUIN|   261           0.00014       -0.47917       -0.06250        0.35417
 BRILLOUIN|   262           0.00014       -0.47917       -0.06250        0.39583
 BRILLOUIN|   263           0.00014       -0.47917       -0.06250        0.43750
 BRILLOUIN|   264           0.00014       -0.47917       -0.06250        0.47917
 BRILLOUIN|   265           0.00014       -0.47917       -0.02083       -0.47917
 BRILLOUIN|   266           0.00014       -0.47917       -0.02083       -0.43750
 BRILLOUIN|   267           0.00014       -0.47917       -0.02083       -0.39583
 BRILLOUIN|   268           0.00014       -0.47917       -0.02083       -0.35417
 BRILLOUIN|   269           0.00014       -0.47917       -0.02083       -0.31250
 BRILLOUIN|   270           0.00014       -0.47917       -0.02083       -0.27083
 BRILLOUIN|   271           0.00014       -0.47917       -0.02083       -0.22917
 BRILLOUIN|   272           0.00014       -0.47917       -0.02083       -0.18750
 BRILLOUIN|   273           0.00014       -0.47917       -0.02083       -0.14583
 BRILLOUIN|   274           0.00014       -0.47917       -0.02083       -0.10417
 BRILLOUIN|   275           0.00014       -0.47917       -0.02083       -0.06250
 BRILLOUIN|   276           0.00014       -0.47917       -0.02083       -0.02083
 BRILLOUIN|   277           0.00014       -0.47917       -0.02083        0.02083
 BRILLOUIN|   278           0.00014       -0.47917       -0.02083        0.06250
 BRILLOUIN|   279           0.00014       -0.47917       -0.02083        0.10417
 BRILLOUIN|   280           0.00014       -0.47917       -0.02083        0.14583
 BRILLOUIN|   281           0.00014       -0.47917       -0.02083        0.18750
 BRILLOUIN|   282           0.00014       -0.47917       -0.02083        0.22917
 BRILLOUIN|   283           0.00014       -0.47917       -0.02083        0.27083
 BRILLOUIN|   284           0.00014       -0.47917       -0.02083        0.31250
 BRILLOUIN|   285           0.00014       -0.47917       -0.02083        0.35417
 BRILLOUIN|   286           0.00014       -0.47917       -0.02083        0.39583
 BRILLOUIN|   287           0.00014       -0.47917       -0.02083        0.43750
 BRILLOUIN|   288           0.00014       -0.47917       -0.02083        0.47917
 BRILLOUIN|   289           0.00014       -0.47917        0.02083       -0.47917
 BRILLOUIN|   290           0.00014       -0.47917        0.02083       -0.43750
 BRILLOUIN|   291           0.00014       -0.47917        0.02083       -0.39583
 BRILLOUIN|   292           0.00014       -0.47917        0.02083       -0.35417
 BRILLOUIN|   293           0.00014       -0.47917        0.02083       -0.31250
 BRILLOUIN|   294           0.00014       -0.47917        0.02083       -0.27083
 BRILLOUIN|   295           0.00014       -0.47917        0.02083       -0.22917
 BRILLOUIN|   296           0.00014       -0.47917        0.02083       -0.18750
 BRILLOUIN|   297           0.00014       -0.47917        0.02083       -0.14583
 BRILLOUIN|   298           0.00014       -0.47917        0.02083       -0.10417
 BRILLOUIN|   299           0.00014       -0.47917        0.02083       -0.06250
 BRILLOUIN|   300           0.00014       -0.47917        0.02083       -0.02083
 BRILLOUIN|   301           0.00014       -0.47917        0.02083        0.02083
 BRILLOUIN|   302           0.00014       -0.47917        0.02083        0.06250
 BRILLOUIN|   303           0.00014       -0.47917        0.02083        0.10417
 BRILLOUIN|   304           0.00014       -0.47917        0.02083        0.14583
 BRILLOUIN|   305           0.00014       -0.47917        0.02083        0.18750
 BRILLOUIN|   306           0.00014       -0.47917        0.02083        0.22917
 BRILLOUIN|   307           0.00014       -0.47917        0.02083        0.27083
 BRILLOUIN|   308           0.00014       -0.47917        0.02083        0.31250
 BRILLOUIN|   309           0.00014       -0.47917        0.02083        0.35417
 BRILLOUIN|   310           0.00014       -0.47917        0.02083        0.39583
 BRILLOUIN|   311           0.00014       -0.47917        0.02083        0.43750
 BRILLOUIN|   312           0.00014       -0.47917        0.02083        0.47917
 BRILLOUIN|   313           0.00014       -0.47917        0.06250       -0.47917
 BRILLOUIN|   314           0.00014       -0.47917        0.06250       -0.43750
 BRILLOUIN|   315           0.00014       -0.47917        0.06250       -0.39583
 BRILLOUIN|   316           0.00014       -0.47917        0.06250       -0.35417
 BRILLOUIN|   317           0.00014       -0.47917        0.06250       -0.31250
 BRILLOUIN|   318           0.00014       -0.47917        0.06250       -0.27083
 BRILLOUIN|   319           0.00014       -0.47917        0.06250       -0.22917
 BRILLOUIN|   320           0.00014       -0.47917        0.06250       -0.18750
 BRILLOUIN|   321           0.00014       -0.47917        0.06250       -0.14583
 BRILLOUIN|   322           0.00014       -0.47917        0.06250       -0.10417
 BRILLOUIN|   323           0.00014       -0.47917        0.06250       -0.06250
 BRILLOUIN|   324           0.00014       -0.47917        0.06250       -0.02083
 BRILLOUIN|   325           0.00014       -0.47917        0.06250        0.02083
 BRILLOUIN|   326           0.00014       -0.47917        0.06250        0.06250
 BRILLOUIN|   327           0.00014       -0.47917        0.06250        0.10417
 BRILLOUIN|   328           0.00014       -0.47917        0.06250        0.14583
 BRILLOUIN|   329           0.00014       -0.47917        0.06250        0.18750
 BRILLOUIN|   330           0.00014       -0.47917        0.06250        0.22917
 BRILLOUIN|   331           0.00014       -0.47917        0.06250        0.27083
 BRILLOUIN|   332           0.00014       -0.47917        0.06250        0.31250
 BRILLOUIN|   333           0.00014       -0.47917        0.06250        0.35417
 BRILLOUIN|   334           0.00014       -0.47917        0.06250        0.39583
 BRILLOUIN|   335           0.00014       -0.47917        0.06250        0.43750
 BRILLOUIN|   336           0.00014       -0.47917        0.06250        0.47917
 BRILLOUIN|   337           0.00014       -0.47917        0.10417       -0.47917
 BRILLOUIN|   338           0.00014       -0.47917        0.10417       -0.43750
 BRILLOUIN|   339           0.00014       -0.47917        0.10417       -0.39583
 BRILLOUIN|   340           0.00014       -0.47917        0.10417       -0.35417
 BRILLOUIN|   341           0.00014       -0.47917        0.10417       -0.31250
 BRILLOUIN|   342           0.00014       -0.47917        0.10417       -0.27083
 BRILLOUIN|   343           0.00014       -0.47917        0.10417       -0.22917
 BRILLOUIN|   344           0.00014       -0.47917        0.10417       -0.18750
 BRILLOUIN|   345           0.00014       -0.47917        0.10417       -0.14583
 BRILLOUIN|   346           0.00014       -0.47917        0.10417       -0.10417
 BRILLOUIN|   347           0.00014       -0.47917        0.10417       -0.06250
 BRILLOUIN|   348           0.00014       -0.47917        0.10417       -0.02083
 BRILLOUIN|   349           0.00014       -0.47917        0.10417        0.02083
 BRILLOUIN|   350           0.00014       -0.47917        0.10417        0.06250
 BRILLOUIN|   351           0.00014       -0.47917        0.10417        0.10417
 BRILLOUIN|   352           0.00014       -0.47917        0.10417        0.14583
 BRILLOUIN|   353           0.00014       -0.47917        0.10417        0.18750
 BRILLOUIN|   354           0.00014       -0.47917        0.10417        0.22917
 BRILLOUIN|   355           0.00014       -0.47917        0.10417        0.27083
 BRILLOUIN|   356           0.00014       -0.47917        0.10417        0.31250
 BRILLOUIN|   357           0.00014       -0.47917        0.10417        0.35417
 BRILLOUIN|   358           0.00014       -0.47917        0.10417        0.39583
 BRILLOUIN|   359           0.00014       -0.47917        0.10417        0.43750
 BRILLOUIN|   360           0.00014       -0.47917        0.10417        0.47917
 BRILLOUIN|   361           0.00014       -0.47917        0.14583       -0.47917
 BRILLOUIN|   362           0.00014       -0.47917        0.14583       -0.43750
 BRILLOUIN|   363           0.00014       -0.47917        0.14583       -0.39583
 BRILLOUIN|   364           0.00014       -0.47917        0.14583       -0.35417
 BRILLOUIN|   365           0.00014       -0.47917        0.14583       -0.31250
 BRILLOUIN|   366           0.00014       -0.47917        0.14583       -0.27083
 BRILLOUIN|   367           0.00014       -0.47917        0.14583       -0.22917
 BRILLOUIN|   368           0.00014       -0.47917        0.14583       -0.18750
 BRILLOUIN|   369           0.00014       -0.47917        0.14583       -0.14583
 BRILLOUIN|   370           0.00014       -0.47917        0.14583       -0.10417
 BRILLOUIN|   371           0.00014       -0.47917        0.14583       -0.06250
 BRILLOUIN|   372           0.00014       -0.47917        0.14583       -0.02083
 BRILLOUIN|   373           0.00014       -0.47917        0.14583        0.02083
 BRILLOUIN|   374           0.00014       -0.47917        0.14583        0.06250
 BRILLOUIN|   375           0.00014       -0.47917        0.14583        0.10417
 BRILLOUIN|   376           0.00014       -0.47917        0.14583        0.14583
 BRILLOUIN|   377           0.00014       -0.47917        0.14583        0.18750
 BRILLOUIN|   378           0.00014       -0.47917        0.14583        0.22917
 BRILLOUIN|   379           0.00014       -0.47917        0.14583        0.27083
 BRILLOUIN|   380           0.00014       -0.47917        0.14583        0.31250
 BRILLOUIN|   381           0.00014       -0.47917        0.14583        0.35417
 BRILLOUIN|   382           0.00014       -0.47917        0.14583        0.39583
 BRILLOUIN|   383           0.00014       -0.47917        0.14583        0.43750
 BRILLOUIN|   384           0.00014       -0.47917        0.14583        0.47917
 BRILLOUIN|   385           0.00014       -0.47917        0.18750       -0.47917
 BRILLOUIN|   386           0.00014       -0.47917        0.18750       -0.43750
 BRILLOUIN|   387           0.00014       -0.47917        0.18750       -0.39583
 BRILLOUIN|   388           0.00014       -0.47917        0.18750       -0.35417
 BRILLOUIN|   389           0.00014       -0.47917        0.18750       -0.31250
 BRILLOUIN|   390           0.00014       -0.47917        0.18750       -0.27083
 BRILLOUIN|   391           0.00014       -0.47917        0.18750       -0.22917
 BRILLOUIN|   392           0.00014       -0.47917        0.18750       -0.18750
 BRILLOUIN|   393           0.00014       -0.47917        0.18750       -0.14583
 BRILLOUIN|   394           0.00014       -0.47917        0.18750       -0.10417
 BRILLOUIN|   395           0.00014       -0.47917        0.18750       -0.06250
 BRILLOUIN|   396           0.00014       -0.47917        0.18750       -0.02083
 BRILLOUIN|   397           0.00014       -0.47917        0.18750        0.02083
 BRILLOUIN|   398           0.00014       -0.47917        0.18750        0.06250
 BRILLOUIN|   399           0.00014       -0.47917        0.18750        0.10417
 BRILLOUIN|   400           0.00014       -0.47917        0.18750        0.14583
 BRILLOUIN|   401           0.00014       -0.47917        0.18750        0.18750
 BRILLOUIN|   402           0.00014       -0.47917        0.18750        0.22917
 BRILLOUIN|   403           0.00014       -0.47917        0.18750        0.27083
 BRILLOUIN|   404           0.00014       -0.47917        0.18750        0.31250
 BRILLOUIN|   405           0.00014       -0.47917        0.18750        0.35417
 BRILLOUIN|   406           0.00014       -0.47917        0.18750        0.39583
 BRILLOUIN|   407           0.00014       -0.47917        0.18750        0.43750
 BRILLOUIN|   408           0.00014       -0.47917        0.18750        0.47917
 BRILLOUIN|   409           0.00014       -0.47917        0.22917       -0.47917
 BRILLOUIN|   410           0.00014       -0.47917        0.22917       -0.43750
 BRILLOUIN|   411           0.00014       -0.47917        0.22917       -0.39583
 BRILLOUIN|   412           0.00014       -0.47917        0.22917       -0.35417
 BRILLOUIN|   413           0.00014       -0.47917        0.22917       -0.31250
 BRILLOUIN|   414           0.00014       -0.47917        0.22917       -0.27083
 BRILLOUIN|   415           0.00014       -0.47917        0.22917       -0.22917
 BRILLOUIN|   416           0.00014       -0.47917        0.22917       -0.18750
 BRILLOUIN|   417           0.00014       -0.47917        0.22917       -0.14583
 BRILLOUIN|   418           0.00014       -0.47917        0.22917       -0.10417
 BRILLOUIN|   419           0.00014       -0.47917        0.22917       -0.06250
 BRILLOUIN|   420           0.00014       -0.47917        0.22917       -0.02083
 BRILLOUIN|   421           0.00014       -0.47917        0.22917        0.02083
 BRILLOUIN|   422           0.00014       -0.47917        0.22917        0.06250
 BRILLOUIN|   423           0.00014       -0.47917        0.22917        0.10417
 BRILLOUIN|   424           0.00014       -0.47917        0.22917        0.14583
 BRILLOUIN|   425           0.00014       -0.47917        0.22917        0.18750
 BRILLOUIN|   426           0.00014       -0.47917        0.22917        0.22917
 BRILLOUIN|   427           0.00014       -0.47917        0.22917        0.27083
 BRILLOUIN|   428           0.00014       -0.47917        0.22917        0.31250
 BRILLOUIN|   429           0.00014       -0.47917        0.22917        0.35417
 BRILLOUIN|   430           0.00014       -0.47917        0.22917        0.39583
 BRILLOUIN|   431           0.00014       -0.47917        0.22917        0.43750
 BRILLOUIN|   432           0.00014       -0.47917        0.22917        0.47917
 BRILLOUIN|   433           0.00014       -0.47917        0.27083       -0.47917
 BRILLOUIN|   434           0.00014       -0.47917        0.27083       -0.43750
 BRILLOUIN|   435           0.00014       -0.47917        0.27083       -0.39583
 BRILLOUIN|   436           0.00014       -0.47917        0.27083       -0.35417
 BRILLOUIN|   437           0.00014       -0.47917        0.27083       -0.31250
 BRILLOUIN|   438           0.00014       -0.47917        0.27083       -0.27083
 BRILLOUIN|   439           0.00014       -0.47917        0.27083       -0.22917
 BRILLOUIN|   440           0.00014       -0.47917        0.27083       -0.18750
 BRILLOUIN|   441           0.00014       -0.47917        0.27083       -0.14583
 BRILLOUIN|   442           0.00014       -0.47917        0.27083       -0.10417
 BRILLOUIN|   443           0.00014       -0.47917        0.27083       -0.06250
 BRILLOUIN|   444           0.00014       -0.47917        0.27083       -0.02083
 BRILLOUIN|   445           0.00014       -0.47917        0.27083        0.02083
 BRILLOUIN|   446           0.00014       -0.47917        0.27083        0.06250
 BRILLOUIN|   447           0.00014       -0.47917        0.27083        0.10417
 BRILLOUIN|   448           0.00014       -0.47917        0.27083        0.14583
 BRILLOUIN|   449           0.00014       -0.47917        0.27083        0.18750
 BRILLOUIN|   450           0.00014       -0.47917        0.27083        0.22917
 BRILLOUIN|   451           0.00014       -0.47917        0.27083        0.27083
 BRILLOUIN|   452           0.00014       -0.47917        0.27083        0.31250
 BRILLOUIN|   453           0.00014       -0.47917        0.27083        0.35417
 BRILLOUIN|   454           0.00014       -0.47917        0.27083        0.39583
 BRILLOUIN|   455           0.00014       -0.47917        0.27083        0.43750
 BRILLOUIN|   456           0.00014       -0.47917        0.27083        0.47917
 BRILLOUIN|   457           0.00014       -0.47917        0.31250       -0.47917
 BRILLOUIN|   458           0.00014       -0.47917        0.31250       -0.43750
 BRILLOUIN|   459           0.00014       -0.47917        0.31250       -0.39583
 BRILLOUIN|   460           0.00014       -0.47917        0.31250       -0.35417
 BRILLOUIN|   461           0.00014       -0.47917        0.31250       -0.31250
 BRILLOUIN|   462           0.00014       -0.47917        0.31250       -0.27083
 BRILLOUIN|   463           0.00014       -0.47917        0.31250       -0.22917
 BRILLOUIN|   464           0.00014       -0.47917        0.31250       -0.18750
 BRILLOUIN|   465           0.00014       -0.47917        0.31250       -0.14583
 BRILLOUIN|   466           0.00014       -0.47917        0.31250       -0.10417
 BRILLOUIN|   467           0.00014       -0.47917        0.31250       -0.06250
 BRILLOUIN|   468           0.00014       -0.47917        0.31250       -0.02083
 BRILLOUIN|   469           0.00014       -0.47917        0.31250        0.02083
 BRILLOUIN|   470           0.00014       -0.47917        0.31250        0.06250
 BRILLOUIN|   471           0.00014       -0.47917        0.31250        0.10417
 BRILLOUIN|   472           0.00014       -0.47917        0.31250        0.14583
 BRILLOUIN|   473           0.00014       -0.47917        0.31250        0.18750
 BRILLOUIN|   474           0.00014       -0.47917        0.31250        0.22917
 BRILLOUIN|   475           0.00014       -0.47917        0.31250        0.27083
 BRILLOUIN|   476           0.00014       -0.47917        0.31250        0.31250
 BRILLOUIN|   477           0.00014       -0.47917        0.31250        0.35417
 BRILLOUIN|   478           0.00014       -0.47917        0.31250        0.39583
 BRILLOUIN|   479           0.00014       -0.47917        0.31250        0.43750
 BRILLOUIN|   480           0.00014       -0.47917        0.31250        0.47917
 BRILLOUIN|   481           0.00014       -0.47917        0.35417       -0.47917
 BRILLOUIN|   482           0.00014       -0.47917        0.35417       -0.43750
 BRILLOUIN|   483           0.00014       -0.47917        0.35417       -0.39583
 BRILLOUIN|   484           0.00014       -0.47917        0.35417       -0.35417
 BRILLOUIN|   485           0.00014       -0.47917        0.35417       -0.31250
 BRILLOUIN|   486           0.00014       -0.47917        0.35417       -0.27083
 BRILLOUIN|   487           0.00014       -0.47917        0.35417       -0.22917
 BRILLOUIN|   488           0.00014       -0.47917        0.35417       -0.18750
 BRILLOUIN|   489           0.00014       -0.47917        0.35417       -0.14583
 BRILLOUIN|   490           0.00014       -0.47917        0.35417       -0.10417
 BRILLOUIN|   491           0.00014       -0.47917        0.35417       -0.06250
 BRILLOUIN|   492           0.00014       -0.47917        0.35417       -0.02083
 BRILLOUIN|   493           0.00014       -0.47917        0.35417        0.02083
 BRILLOUIN|   494           0.00014       -0.47917        0.35417        0.06250
 BRILLOUIN|   495           0.00014       -0.47917        0.35417        0.10417
 BRILLOUIN|   496           0.00014       -0.47917        0.35417        0.14583
 BRILLOUIN|   497           0.00014       -0.47917        0.35417        0.18750
 BRILLOUIN|   498           0.00014       -0.47917        0.35417        0.22917
 BRILLOUIN|   499           0.00014       -0.47917        0.35417        0.27083
 BRILLOUIN|   500           0.00014       -0.47917        0.35417        0.31250
 BRILLOUIN|   501           0.00014       -0.47917        0.35417        0.35417
 BRILLOUIN|   502           0.00014       -0.47917        0.35417        0.39583
 BRILLOUIN|   503           0.00014       -0.47917        0.35417        0.43750
 BRILLOUIN|   504           0.00014       -0.47917        0.35417        0.47917
 BRILLOUIN|   505           0.00014       -0.47917        0.39583       -0.47917
 BRILLOUIN|   506           0.00014       -0.47917        0.39583       -0.43750
 BRILLOUIN|   507           0.00014       -0.47917        0.39583       -0.39583
 BRILLOUIN|   508           0.00014       -0.47917        0.39583       -0.35417
 BRILLOUIN|   509           0.00014       -0.47917        0.39583       -0.31250
 BRILLOUIN|   510           0.00014       -0.47917        0.39583       -0.27083
 BRILLOUIN|   511           0.00014       -0.47917        0.39583       -0.22917
 BRILLOUIN|   512           0.00014       -0.47917        0.39583       -0.18750
 BRILLOUIN|   513           0.00014       -0.47917        0.39583       -0.14583
 BRILLOUIN|   514           0.00014       -0.47917        0.39583       -0.10417
 BRILLOUIN|   515           0.00014       -0.47917        0.39583       -0.06250
 BRILLOUIN|   516           0.00014       -0.47917        0.39583       -0.02083
 BRILLOUIN|   517           0.00014       -0.47917        0.39583        0.02083
 BRILLOUIN|   518           0.00014       -0.47917        0.39583        0.06250
 BRILLOUIN|   519           0.00014       -0.47917        0.39583        0.10417
 BRILLOUIN|   520           0.00014       -0.47917        0.39583        0.14583
 BRILLOUIN|   521           0.00014       -0.47917        0.39583        0.18750
 BRILLOUIN|   522           0.00014       -0.47917        0.39583        0.22917
 BRILLOUIN|   523           0.00014       -0.47917        0.39583        0.27083
 BRILLOUIN|   524           0.00014       -0.47917        0.39583        0.31250
 BRILLOUIN|   525           0.00014       -0.47917        0.39583        0.35417
 BRILLOUIN|   526           0.00014       -0.47917        0.39583        0.39583
 BRILLOUIN|   527           0.00014       -0.47917        0.39583        0.43750
 BRILLOUIN|   528           0.00014       -0.47917        0.39583        0.47917
 BRILLOUIN|   529           0.00014       -0.47917        0.43750       -0.47917
 BRILLOUIN|   530           0.00014       -0.47917        0.43750       -0.43750
 BRILLOUIN|   531           0.00014       -0.47917        0.43750       -0.39583
 BRILLOUIN|   532           0.00014       -0.47917        0.43750       -0.35417
 BRILLOUIN|   533           0.00014       -0.47917        0.43750       -0.31250
 BRILLOUIN|   534           0.00014       -0.47917        0.43750       -0.27083
 BRILLOUIN|   535           0.00014       -0.47917        0.43750       -0.22917
 BRILLOUIN|   536           0.00014       -0.47917        0.43750       -0.18750
 BRILLOUIN|   537           0.00014       -0.47917        0.43750       -0.14583
 BRILLOUIN|   538           0.00014       -0.47917        0.43750       -0.10417
 BRILLOUIN|   539           0.00014       -0.47917        0.43750       -0.06250
 BRILLOUIN|   540           0.00014       -0.47917        0.43750       -0.02083
 BRILLOUIN|   541           0.00014       -0.47917        0.43750        0.02083
 BRILLOUIN|   542           0.00014       -0.47917        0.43750        0.06250
 BRILLOUIN|   543           0.00014       -0.47917        0.43750        0.10417
 BRILLOUIN|   544           0.00014       -0.47917        0.43750        0.14583
 BRILLOUIN|   545           0.00014       -0.47917        0.43750        0.18750
 BRILLOUIN|   546           0.00014       -0.47917        0.43750        0.22917
 BRILLOUIN|   547           0.00014       -0.47917        0.43750        0.27083
 BRILLOUIN|   548           0.00014       -0.47917        0.43750        0.31250
 BRILLOUIN|   549           0.00014       -0.47917        0.43750        0.35417
 BRILLOUIN|   550           0.00014       -0.47917        0.43750        0.39583
 BRILLOUIN|   551           0.00014       -0.47917        0.43750        0.43750
 BRILLOUIN|   552           0.00014       -0.47917        0.43750        0.47917
 BRILLOUIN|   553           0.00014       -0.47917        0.47917       -0.47917
 BRILLOUIN|   554           0.00014       -0.47917        0.47917       -0.43750
 BRILLOUIN|   555           0.00014       -0.47917        0.47917       -0.39583
 BRILLOUIN|   556           0.00014       -0.47917        0.47917       -0.35417
 BRILLOUIN|   557           0.00014       -0.47917        0.47917       -0.31250
 BRILLOUIN|   558           0.00014       -0.47917        0.47917       -0.27083
 BRILLOUIN|   559           0.00014       -0.47917        0.47917       -0.22917
 BRILLOUIN|   560           0.00014       -0.47917        0.47917       -0.18750
 BRILLOUIN|   561           0.00014       -0.47917        0.47917       -0.14583
 BRILLOUIN|   562           0.00014       -0.47917        0.47917       -0.10417
 BRILLOUIN|   563           0.00014       -0.47917        0.47917       -0.06250
 BRILLOUIN|   564           0.00014       -0.47917        0.47917       -0.02083
 BRILLOUIN|   565           0.00014       -0.47917        0.47917        0.02083
 BRILLOUIN|   566           0.00014       -0.47917        0.47917        0.06250
 BRILLOUIN|   567           0.00014       -0.47917        0.47917        0.10417
 BRILLOUIN|   568           0.00014       -0.47917        0.47917        0.14583
 BRILLOUIN|   569           0.00014       -0.47917        0.47917        0.18750
 BRILLOUIN|   570           0.00014       -0.47917        0.47917        0.22917
 BRILLOUIN|   571           0.00014       -0.47917        0.47917        0.27083
 BRILLOUIN|   572           0.00014       -0.47917        0.47917        0.31250
 BRILLOUIN|   573           0.00014       -0.47917        0.47917        0.35417
 BRILLOUIN|   574           0.00014       -0.47917        0.47917        0.39583
 BRILLOUIN|   575           0.00014       -0.47917        0.47917        0.43750
 BRILLOUIN|   576           0.00014       -0.47917        0.47917        0.47917
 BRILLOUIN|   577           0.00014       -0.43750       -0.47917       -0.47917
 BRILLOUIN|   578           0.00014       -0.43750       -0.47917       -0.43750
 BRILLOUIN|   579           0.00014       -0.43750       -0.47917       -0.39583
 BRILLOUIN|   580           0.00014       -0.43750       -0.47917       -0.35417
 BRILLOUIN|   581           0.00014       -0.43750       -0.47917       -0.31250
 BRILLOUIN|   582           0.00014       -0.43750       -0.47917       -0.27083
 BRILLOUIN|   583           0.00014       -0.43750       -0.47917       -0.22917
 BRILLOUIN|   584           0.00014       -0.43750       -0.47917       -0.18750
 BRILLOUIN|   585           0.00014       -0.43750       -0.47917       -0.14583
 BRILLOUIN|   586           0.00014       -0.43750       -0.47917       -0.10417
 BRILLOUIN|   587           0.00014       -0.43750       -0.47917       -0.06250
 BRILLOUIN|   588           0.00014       -0.43750       -0.47917       -0.02083
 BRILLOUIN|   589           0.00014       -0.43750       -0.47917        0.02083
 BRILLOUIN|   590           0.00014       -0.43750       -0.47917        0.06250
 BRILLOUIN|   591           0.00014       -0.43750       -0.47917        0.10417
 BRILLOUIN|   592           0.00014       -0.43750       -0.47917        0.14583
 BRILLOUIN|   593           0.00014       -0.43750       -0.47917        0.18750
 BRILLOUIN|   594           0.00014       -0.43750       -0.47917        0.22917
 BRILLOUIN|   595           0.00014       -0.43750       -0.47917        0.27083
 BRILLOUIN|   596           0.00014       -0.43750       -0.47917        0.31250
 BRILLOUIN|   597           0.00014       -0.43750       -0.47917        0.35417
 BRILLOUIN|   598           0.00014       -0.43750       -0.47917        0.39583
 BRILLOUIN|   599           0.00014       -0.43750       -0.47917        0.43750
 BRILLOUIN|   600           0.00014       -0.43750       -0.47917        0.47917
 BRILLOUIN|   601           0.00014       -0.43750       -0.43750       -0.47917
 BRILLOUIN|   602           0.00014       -0.43750       -0.43750       -0.43750
 BRILLOUIN|   603           0.00014       -0.43750       -0.43750       -0.39583
 BRILLOUIN|   604           0.00014       -0.43750       -0.43750       -0.35417
 BRILLOUIN|   605           0.00014       -0.43750       -0.43750       -0.31250
 BRILLOUIN|   606           0.00014       -0.43750       -0.43750       -0.27083
 BRILLOUIN|   607           0.00014       -0.43750       -0.43750       -0.22917
 BRILLOUIN|   608           0.00014       -0.43750       -0.43750       -0.18750
 BRILLOUIN|   609           0.00014       -0.43750       -0.43750       -0.14583
 BRILLOUIN|   610           0.00014       -0.43750       -0.43750       -0.10417
 BRILLOUIN|   611           0.00014       -0.43750       -0.43750       -0.06250
 BRILLOUIN|   612           0.00014       -0.43750       -0.43750       -0.02083
 BRILLOUIN|   613           0.00014       -0.43750       -0.43750        0.02083
 BRILLOUIN|   614           0.00014       -0.43750       -0.43750        0.06250
 BRILLOUIN|   615           0.00014       -0.43750       -0.43750        0.10417
 BRILLOUIN|   616           0.00014       -0.43750       -0.43750        0.14583
 BRILLOUIN|   617           0.00014       -0.43750       -0.43750        0.18750
 BRILLOUIN|   618           0.00014       -0.43750       -0.43750        0.22917
 BRILLOUIN|   619           0.00014       -0.43750       -0.43750        0.27083
 BRILLOUIN|   620           0.00014       -0.43750       -0.43750        0.31250
 BRILLOUIN|   621           0.00014       -0.43750       -0.43750        0.35417
 BRILLOUIN|   622           0.00014       -0.43750       -0.43750        0.39583
 BRILLOUIN|   623           0.00014       -0.43750       -0.43750        0.43750
 BRILLOUIN|   624           0.00014       -0.43750       -0.43750        0.47917
 BRILLOUIN|   625           0.00014       -0.43750       -0.39583       -0.47917
 BRILLOUIN|   626           0.00014       -0.43750       -0.39583       -0.43750
 BRILLOUIN|   627           0.00014       -0.43750       -0.39583       -0.39583
 BRILLOUIN|   628           0.00014       -0.43750       -0.39583       -0.35417
 BRILLOUIN|   629           0.00014       -0.43750       -0.39583       -0.31250
 BRILLOUIN|   630           0.00014       -0.43750       -0.39583       -0.27083
 BRILLOUIN|   631           0.00014       -0.43750       -0.39583       -0.22917
 BRILLOUIN|   632           0.00014       -0.43750       -0.39583       -0.18750
 BRILLOUIN|   633           0.00014       -0.43750       -0.39583       -0.14583
 BRILLOUIN|   634           0.00014       -0.43750       -0.39583       -0.10417
 BRILLOUIN|   635           0.00014       -0.43750       -0.39583       -0.06250
 BRILLOUIN|   636           0.00014       -0.43750       -0.39583       -0.02083
 BRILLOUIN|   637           0.00014       -0.43750       -0.39583        0.02083
 BRILLOUIN|   638           0.00014       -0.43750       -0.39583        0.06250
 BRILLOUIN|   639           0.00014       -0.43750       -0.39583        0.10417
 BRILLOUIN|   640           0.00014       -0.43750       -0.39583        0.14583
 BRILLOUIN|   641           0.00014       -0.43750       -0.39583        0.18750
 BRILLOUIN|   642           0.00014       -0.43750       -0.39583        0.22917
 BRILLOUIN|   643           0.00014       -0.43750       -0.39583        0.27083
 BRILLOUIN|   644           0.00014       -0.43750       -0.39583        0.31250
 BRILLOUIN|   645           0.00014       -0.43750       -0.39583        0.35417
 BRILLOUIN|   646           0.00014       -0.43750       -0.39583        0.39583
 BRILLOUIN|   647           0.00014       -0.43750       -0.39583        0.43750
 BRILLOUIN|   648           0.00014       -0.43750       -0.39583        0.47917
 BRILLOUIN|   649           0.00014       -0.43750       -0.35417       -0.47917
 BRILLOUIN|   650           0.00014       -0.43750       -0.35417       -0.43750
 BRILLOUIN|   651           0.00014       -0.43750       -0.35417       -0.39583
 BRILLOUIN|   652           0.00014       -0.43750       -0.35417       -0.35417
 BRILLOUIN|   653           0.00014       -0.43750       -0.35417       -0.31250
 BRILLOUIN|   654           0.00014       -0.43750       -0.35417       -0.27083
 BRILLOUIN|   655           0.00014       -0.43750       -0.35417       -0.22917
 BRILLOUIN|   656           0.00014       -0.43750       -0.35417       -0.18750
 BRILLOUIN|   657           0.00014       -0.43750       -0.35417       -0.14583
 BRILLOUIN|   658           0.00014       -0.43750       -0.35417       -0.10417
 BRILLOUIN|   659           0.00014       -0.43750       -0.35417       -0.06250
 BRILLOUIN|   660           0.00014       -0.43750       -0.35417       -0.02083
 BRILLOUIN|   661           0.00014       -0.43750       -0.35417        0.02083
 BRILLOUIN|   662           0.00014       -0.43750       -0.35417        0.06250
 BRILLOUIN|   663           0.00014       -0.43750       -0.35417        0.10417
 BRILLOUIN|   664           0.00014       -0.43750       -0.35417        0.14583
 BRILLOUIN|   665           0.00014       -0.43750       -0.35417        0.18750
 BRILLOUIN|   666           0.00014       -0.43750       -0.35417        0.22917
 BRILLOUIN|   667           0.00014       -0.43750       -0.35417        0.27083
 BRILLOUIN|   668           0.00014       -0.43750       -0.35417        0.31250
 BRILLOUIN|   669           0.00014       -0.43750       -0.35417        0.35417
 BRILLOUIN|   670           0.00014       -0.43750       -0.35417        0.39583
 BRILLOUIN|   671           0.00014       -0.43750       -0.35417        0.43750
 BRILLOUIN|   672           0.00014       -0.43750       -0.35417        0.47917
 BRILLOUIN|   673           0.00014       -0.43750       -0.31250       -0.47917
 BRILLOUIN|   674           0.00014       -0.43750       -0.31250       -0.43750
 BRILLOUIN|   675           0.00014       -0.43750       -0.31250       -0.39583
 BRILLOUIN|   676           0.00014       -0.43750       -0.31250       -0.35417
 BRILLOUIN|   677           0.00014       -0.43750       -0.31250       -0.31250
 BRILLOUIN|   678           0.00014       -0.43750       -0.31250       -0.27083
 BRILLOUIN|   679           0.00014       -0.43750       -0.31250       -0.22917
 BRILLOUIN|   680           0.00014       -0.43750       -0.31250       -0.18750
 BRILLOUIN|   681           0.00014       -0.43750       -0.31250       -0.14583
 BRILLOUIN|   682           0.00014       -0.43750       -0.31250       -0.10417
 BRILLOUIN|   683           0.00014       -0.43750       -0.31250       -0.06250
 BRILLOUIN|   684           0.00014       -0.43750       -0.31250       -0.02083
 BRILLOUIN|   685           0.00014       -0.43750       -0.31250        0.02083
 BRILLOUIN|   686           0.00014       -0.43750       -0.31250        0.06250
 BRILLOUIN|   687           0.00014       -0.43750       -0.31250        0.10417
 BRILLOUIN|   688           0.00014       -0.43750       -0.31250        0.14583
 BRILLOUIN|   689           0.00014       -0.43750       -0.31250        0.18750
 BRILLOUIN|   690           0.00014       -0.43750       -0.31250        0.22917
 BRILLOUIN|   691           0.00014       -0.43750       -0.31250        0.27083
 BRILLOUIN|   692           0.00014       -0.43750       -0.31250        0.31250
 BRILLOUIN|   693           0.00014       -0.43750       -0.31250        0.35417
 BRILLOUIN|   694           0.00014       -0.43750       -0.31250        0.39583
 BRILLOUIN|   695           0.00014       -0.43750       -0.31250        0.43750
 BRILLOUIN|   696           0.00014       -0.43750       -0.31250        0.47917
 BRILLOUIN|   697           0.00014       -0.43750       -0.27083       -0.47917
 BRILLOUIN|   698           0.00014       -0.43750       -0.27083       -0.43750
 BRILLOUIN|   699           0.00014       -0.43750       -0.27083       -0.39583
 BRILLOUIN|   700           0.00014       -0.43750       -0.27083       -0.35417
 BRILLOUIN|   701           0.00014       -0.43750       -0.27083       -0.31250
 BRILLOUIN|   702           0.00014       -0.43750       -0.27083       -0.27083
 BRILLOUIN|   703           0.00014       -0.43750       -0.27083       -0.22917
 BRILLOUIN|   704           0.00014       -0.43750       -0.27083       -0.18750
 BRILLOUIN|   705           0.00014       -0.43750       -0.27083       -0.14583
 BRILLOUIN|   706           0.00014       -0.43750       -0.27083       -0.10417
 BRILLOUIN|   707           0.00014       -0.43750       -0.27083       -0.06250
 BRILLOUIN|   708           0.00014       -0.43750       -0.27083       -0.02083
 BRILLOUIN|   709           0.00014       -0.43750       -0.27083        0.02083
 BRILLOUIN|   710           0.00014       -0.43750       -0.27083        0.06250
 BRILLOUIN|   711           0.00014       -0.43750       -0.27083        0.10417
 BRILLOUIN|   712           0.00014       -0.43750       -0.27083        0.14583
 BRILLOUIN|   713           0.00014       -0.43750       -0.27083        0.18750
 BRILLOUIN|   714           0.00014       -0.43750       -0.27083        0.22917
 BRILLOUIN|   715           0.00014       -0.43750       -0.27083        0.27083
 BRILLOUIN|   716           0.00014       -0.43750       -0.27083        0.31250
 BRILLOUIN|   717           0.00014       -0.43750       -0.27083        0.35417
 BRILLOUIN|   718           0.00014       -0.43750       -0.27083        0.39583
 BRILLOUIN|   719           0.00014       -0.43750       -0.27083        0.43750
 BRILLOUIN|   720           0.00014       -0.43750       -0.27083        0.47917
 BRILLOUIN|   721           0.00014       -0.43750       -0.22917       -0.47917
 BRILLOUIN|   722           0.00014       -0.43750       -0.22917       -0.43750
 BRILLOUIN|   723           0.00014       -0.43750       -0.22917       -0.39583
 BRILLOUIN|   724           0.00014       -0.43750       -0.22917       -0.35417
 BRILLOUIN|   725           0.00014       -0.43750       -0.22917       -0.31250
 BRILLOUIN|   726           0.00014       -0.43750       -0.22917       -0.27083
 BRILLOUIN|   727           0.00014       -0.43750       -0.22917       -0.22917
 BRILLOUIN|   728           0.00014       -0.43750       -0.22917       -0.18750
 BRILLOUIN|   729           0.00014       -0.43750       -0.22917       -0.14583
 BRILLOUIN|   730           0.00014       -0.43750       -0.22917       -0.10417
 BRILLOUIN|   731           0.00014       -0.43750       -0.22917       -0.06250
 BRILLOUIN|   732           0.00014       -0.43750       -0.22917       -0.02083
 BRILLOUIN|   733           0.00014       -0.43750       -0.22917        0.02083
 BRILLOUIN|   734           0.00014       -0.43750       -0.22917        0.06250
 BRILLOUIN|   735           0.00014       -0.43750       -0.22917        0.10417
 BRILLOUIN|   736           0.00014       -0.43750       -0.22917        0.14583
 BRILLOUIN|   737           0.00014       -0.43750       -0.22917        0.18750
 BRILLOUIN|   738           0.00014       -0.43750       -0.22917        0.22917
 BRILLOUIN|   739           0.00014       -0.43750       -0.22917        0.27083
 BRILLOUIN|   740           0.00014       -0.43750       -0.22917        0.31250
 BRILLOUIN|   741           0.00014       -0.43750       -0.22917        0.35417
 BRILLOUIN|   742           0.00014       -0.43750       -0.22917        0.39583
 BRILLOUIN|   743           0.00014       -0.43750       -0.22917        0.43750
 BRILLOUIN|   744           0.00014       -0.43750       -0.22917        0.47917
 BRILLOUIN|   745           0.00014       -0.43750       -0.18750       -0.47917
 BRILLOUIN|   746           0.00014       -0.43750       -0.18750       -0.43750
 BRILLOUIN|   747           0.00014       -0.43750       -0.18750       -0.39583
 BRILLOUIN|   748           0.00014       -0.43750       -0.18750       -0.35417
 BRILLOUIN|   749           0.00014       -0.43750       -0.18750       -0.31250
 BRILLOUIN|   750           0.00014       -0.43750       -0.18750       -0.27083
 BRILLOUIN|   751           0.00014       -0.43750       -0.18750       -0.22917
 BRILLOUIN|   752           0.00014       -0.43750       -0.18750       -0.18750
 BRILLOUIN|   753           0.00014       -0.43750       -0.18750       -0.14583
 BRILLOUIN|   754           0.00014       -0.43750       -0.18750       -0.10417
 BRILLOUIN|   755           0.00014       -0.43750       -0.18750       -0.06250
 BRILLOUIN|   756           0.00014       -0.43750       -0.18750       -0.02083
 BRILLOUIN|   757           0.00014       -0.43750       -0.18750        0.02083
 BRILLOUIN|   758           0.00014       -0.43750       -0.18750        0.06250
 BRILLOUIN|   759           0.00014       -0.43750       -0.18750        0.10417
 BRILLOUIN|   760           0.00014       -0.43750       -0.18750        0.14583
 BRILLOUIN|   761           0.00014       -0.43750       -0.18750        0.18750
 BRILLOUIN|   762           0.00014       -0.43750       -0.18750        0.22917
 BRILLOUIN|   763           0.00014       -0.43750       -0.18750        0.27083
 BRILLOUIN|   764           0.00014       -0.43750       -0.18750        0.31250
 BRILLOUIN|   765           0.00014       -0.43750       -0.18750        0.35417
 BRILLOUIN|   766           0.00014       -0.43750       -0.18750        0.39583
 BRILLOUIN|   767           0.00014       -0.43750       -0.18750        0.43750
 BRILLOUIN|   768           0.00014       -0.43750       -0.18750        0.47917
 BRILLOUIN|   769           0.00014       -0.43750       -0.14583       -0.47917
 BRILLOUIN|   770           0.00014       -0.43750       -0.14583       -0.43750
 BRILLOUIN|   771           0.00014       -0.43750       -0.14583       -0.39583
 BRILLOUIN|   772           0.00014       -0.43750       -0.14583       -0.35417
 BRILLOUIN|   773           0.00014       -0.43750       -0.14583       -0.31250
 BRILLOUIN|   774           0.00014       -0.43750       -0.14583       -0.27083
 BRILLOUIN|   775           0.00014       -0.43750       -0.14583       -0.22917
 BRILLOUIN|   776           0.00014       -0.43750       -0.14583       -0.18750
 BRILLOUIN|   777           0.00014       -0.43750       -0.14583       -0.14583
 BRILLOUIN|   778           0.00014       -0.43750       -0.14583       -0.10417
 BRILLOUIN|   779           0.00014       -0.43750       -0.14583       -0.06250
 BRILLOUIN|   780           0.00014       -0.43750       -0.14583       -0.02083
 BRILLOUIN|   781           0.00014       -0.43750       -0.14583        0.02083
 BRILLOUIN|   782           0.00014       -0.43750       -0.14583        0.06250
 BRILLOUIN|   783           0.00014       -0.43750       -0.14583        0.10417
 BRILLOUIN|   784           0.00014       -0.43750       -0.14583        0.14583
 BRILLOUIN|   785           0.00014       -0.43750       -0.14583        0.18750
 BRILLOUIN|   786           0.00014       -0.43750       -0.14583        0.22917
 BRILLOUIN|   787           0.00014       -0.43750       -0.14583        0.27083
 BRILLOUIN|   788           0.00014       -0.43750       -0.14583        0.31250
 BRILLOUIN|   789           0.00014       -0.43750       -0.14583        0.35417
 BRILLOUIN|   790           0.00014       -0.43750       -0.14583        0.39583
 BRILLOUIN|   791           0.00014       -0.43750       -0.14583        0.43750
 BRILLOUIN|   792           0.00014       -0.43750       -0.14583        0.47917
 BRILLOUIN|   793           0.00014       -0.43750       -0.10417       -0.47917
 BRILLOUIN|   794           0.00014       -0.43750       -0.10417       -0.43750
 BRILLOUIN|   795           0.00014       -0.43750       -0.10417       -0.39583
 BRILLOUIN|   796           0.00014       -0.43750       -0.10417       -0.35417
 BRILLOUIN|   797           0.00014       -0.43750       -0.10417       -0.31250
 BRILLOUIN|   798           0.00014       -0.43750       -0.10417       -0.27083
 BRILLOUIN|   799           0.00014       -0.43750       -0.10417       -0.22917
 BRILLOUIN|   800           0.00014       -0.43750       -0.10417       -0.18750
 BRILLOUIN|   801           0.00014       -0.43750       -0.10417       -0.14583
 BRILLOUIN|   802           0.00014       -0.43750       -0.10417       -0.10417
 BRILLOUIN|   803           0.00014       -0.43750       -0.10417       -0.06250
 BRILLOUIN|   804           0.00014       -0.43750       -0.10417       -0.02083
 BRILLOUIN|   805           0.00014       -0.43750       -0.10417        0.02083
 BRILLOUIN|   806           0.00014       -0.43750       -0.10417        0.06250
 BRILLOUIN|   807           0.00014       -0.43750       -0.10417        0.10417
 BRILLOUIN|   808           0.00014       -0.43750       -0.10417        0.14583
 BRILLOUIN|   809           0.00014       -0.43750       -0.10417        0.18750
 BRILLOUIN|   810           0.00014       -0.43750       -0.10417        0.22917
 BRILLOUIN|   811           0.00014       -0.43750       -0.10417        0.27083
 BRILLOUIN|   812           0.00014       -0.43750       -0.10417        0.31250
 BRILLOUIN|   813           0.00014       -0.43750       -0.10417        0.35417
 BRILLOUIN|   814           0.00014       -0.43750       -0.10417        0.39583
 BRILLOUIN|   815           0.00014       -0.43750       -0.10417        0.43750
 BRILLOUIN|   816           0.00014       -0.43750       -0.10417        0.47917
 BRILLOUIN|   817           0.00014       -0.43750       -0.06250       -0.47917
 BRILLOUIN|   818           0.00014       -0.43750       -0.06250       -0.43750
 BRILLOUIN|   819           0.00014       -0.43750       -0.06250       -0.39583
 BRILLOUIN|   820           0.00014       -0.43750       -0.06250       -0.35417
 BRILLOUIN|   821           0.00014       -0.43750       -0.06250       -0.31250
 BRILLOUIN|   822           0.00014       -0.43750       -0.06250       -0.27083
 BRILLOUIN|   823           0.00014       -0.43750       -0.06250       -0.22917
 BRILLOUIN|   824           0.00014       -0.43750       -0.06250       -0.18750
 BRILLOUIN|   825           0.00014       -0.43750       -0.06250       -0.14583
 BRILLOUIN|   826           0.00014       -0.43750       -0.06250       -0.10417
 BRILLOUIN|   827           0.00014       -0.43750       -0.06250       -0.06250
 BRILLOUIN|   828           0.00014       -0.43750       -0.06250       -0.02083
 BRILLOUIN|   829           0.00014       -0.43750       -0.06250        0.02083
 BRILLOUIN|   830           0.00014       -0.43750       -0.06250        0.06250
 BRILLOUIN|   831           0.00014       -0.43750       -0.06250        0.10417
 BRILLOUIN|   832           0.00014       -0.43750       -0.06250        0.14583
 BRILLOUIN|   833           0.00014       -0.43750       -0.06250        0.18750
 BRILLOUIN|   834           0.00014       -0.43750       -0.06250        0.22917
 BRILLOUIN|   835           0.00014       -0.43750       -0.06250        0.27083
 BRILLOUIN|   836           0.00014       -0.43750       -0.06250        0.31250
 BRILLOUIN|   837           0.00014       -0.43750       -0.06250        0.35417
 BRILLOUIN|   838           0.00014       -0.43750       -0.06250        0.39583
 BRILLOUIN|   839           0.00014       -0.43750       -0.06250        0.43750
 BRILLOUIN|   840           0.00014       -0.43750       -0.06250        0.47917
 BRILLOUIN|   841           0.00014       -0.43750       -0.02083       -0.47917
 BRILLOUIN|   842           0.00014       -0.43750       -0.02083       -0.43750
 BRILLOUIN|   843           0.00014       -0.43750       -0.02083       -0.39583
 BRILLOUIN|   844           0.00014       -0.43750       -0.02083       -0.35417
[...]
 GPU-Accelerated Sparse Matrix-Matrix Multiplication for Linear Scaling Density 
 Functional Theory.
 https://doi.org/10.1002/9781118670712.ch8

 A. Heinecke, G. Henry, M. Hutchinson, H. Pabst.
 Proceedings of Intl. Supercomputing Conference, 981-991 (2016).
 LIBXSMM: Accelerating Small Matrix Multiplications by Runtime Code Generation.
 https://doi.org/10.1109/SC.2016.83

 J. Hutter, M. Iannuzzi, F. Schiffmann, J. VandeVondele.
 WIREs Comput Mol Sci. 4, 15-25 (2014).
 CP2K: atomistic simulations of condensed matter systems.
 https://doi.org/10.1002/wcms.1159

 U. Borstnik, J. VandeVondele, V. Weber, J. Hutter.
 Parallel Comput. 40, 47-58 (2014).
 Sparse matrix multiplication: The distributed block-compressed sparse row 
 library.
 https://doi.org/10.1016/j.parco.2014.03.012

 A. Marek, V. Blum, R. Johanni, V. Havu, B. Lang, T. Auckenthaler, A. Heinecke, 
 H. Bungartz, H. Lederer.
 J. Phys. Condens. Matter 26, 213201 (2014).
 The ELPA library: scalable parallel eigenvalue solutions for electronic 
 structure theory and computational science.
 https://doi.org/10.1088/0953-8984/26/21/213201

 J. VandeVondele, J. Hutter.
 J. Chem. Phys. 127, 114105 (2007).
 Gaussian basis sets for accurate calculations on molecular systems in gas and 
 condensed phases.
 https://doi.org/10.1063/1.2770708

 M. Krack.
 Theor. Chem. Acc. 114, 145-152 (2005).
 Pseudopotentials for H to Kr optimized for gradient-corrected 
 exchange-correlation functionals.
 https://doi.org/10.1007/s00214-005-0655-y

 M. Frigo, S. G. Johnson.
 Proc. IEEE 93, 216-231 (2005).
 The design and implementation of FFTW3.
 https://doi.org/10.1109/JPROC.2004.840301

 M. Krack, M. Parrinello.
 Phys. Chem. Chem. Phys. 2, 2105-2112 (2000).
 All-electron ab-initio molecular dynamics.
 https://doi.org/10.1039/b001167n

 G. Lippert, J. Hutter, M. Parrinello.
 Theor. Chem. Acc. 103, 124-140 (1999).
 The Gaussian and augmented-plane-wave density functional method for ab initio 
 molecular dynamics simulations.
 https://doi.org/10.1007/s002140050523

 C. Hartwigsen, S. Goedecker, J. Hutter.
 Phys. Rev. B 58, 3641-3662 (1998).
 Relativistic separable dual-space Gaussian pseudopotentials from H to Rn.
 https://doi.org/10.1103/PhysRevB.58.3641

 S. Goedecker, M. Teter, J. Hutter.
 Phys. Rev. B 54, 1703-1710 (1996).
 Separable dual-space Gaussian pseudopotentials.
 https://doi.org/10.1103/PhysRevB.54.1703

 J. P. Perdew, K. Burke, M. Ernzerhof.
 Phys. Rev. Lett. 77, 3865-3868 (1996).
 Generalized gradient approximation made simple.
 https://doi.org/10.1103/PhysRevLett.77.3865


 -------------------------------------------------------------------------------
 -                                                                             -
 -                                T I M I N G                                  -
 -                                                                             -
 -------------------------------------------------------------------------------
 SUBROUTINE                       CALLS  ASD         SELF TIME        TOTAL TIME
                                MAXIMUM       AVERAGE  MAXIMUM  AVERAGE  MAXIMUM
 CP2K                                 1  1.0     0.08     0.23 62840.38 62840.64
 qs_energies                          1  2.0     0.01     0.04 62833.25 62833.62
 qs_energies_properties               1  3.0     0.00     0.00 60643.51 60643.87
 post_scf_bandstructure               1  4.0     0.00     0.00 60643.51 60643.87
 gw                                   1  5.0     0.01     0.04 59686.87 59687.31
 gw_calc_small_cell_full_kp           1  6.0     0.00     0.00 59078.66 59079.07
 dbt_total                      ******* -1.6   505.06   533.31 38814.38 39813.65
 dbt_contract                   ******* 10.7   559.47   572.12 32047.70 32832.32
 dbt_tas_multiply               ******* 13.0    50.75    54.55 29499.47 30273.96
 dbt_tas_total                  ******* 14.0  2901.43  2974.42 29468.50 30242.92
 compute_Sigma_c                      1  7.0     0.00     0.01 29429.43 29429.61
 compute_chi                          1  7.0     0.22     0.58 23711.44 23712.40
 contract_to_Sigma                  671  8.0  2357.28  2505.19 21818.02 22561.22
 dbt_tas_estimate_result_nze    ******* 13.5   864.78   902.81 14625.09 15039.58
 contract_M_occ_vir_to_chi          305  8.0  4178.84  4442.64 13211.66 13674.69
 contract_to_Sigma_3c_x_G       *******  9.0   117.18   130.42 11506.24 12002.80
 contract_W                         366  8.0   257.24   266.99  9340.73  9641.76
 G_times_3c                       87810  8.0   336.53   355.88  8572.09  8787.44
 contract_to_Sigma_contract       96591  9.0   402.21   421.77  7145.09  7379.20
 dbt_tas_dbm                    ******* 15.0    48.62    50.98  7002.15  7236.78
 dbm_multiply                   ******* 17.0  6897.03  7130.40  6897.03  7130.40
 reshape_mm_small               ******* 15.0  3595.60  3711.29  6816.27  7022.41
 dbt_copy                       ******* ****   547.11   580.45  6451.67  6844.15
 get_t_3c_int                   *******  9.7   691.66   741.33  4880.27  5222.96
 add_R                          ******* ****  2534.55  2682.83  4729.87  4885.00
 dbt_reshape                    ******* 12.1  2951.59  3195.07  3952.44  4289.21
 compute_Sigma_x                      1  7.0     0.00     0.00  4036.46  4037.01
 dbt_tas_create_split           ******* -8.6    98.91   108.84  3629.12  3719.46
 dbt_tas_create_split_rows_or_c ******* -7.6   372.47   392.51  3530.22  3619.06
 is_cell_in_index_to_cell       *******  0.4  3411.68  3568.10  3411.68  3568.10
 reshape_mm_compatible          ******* 15.0   493.93   507.76  3315.86  3393.19
 mp_sync                        ******* -1.6  1801.52  3008.41  1801.52  3008.41
 dbt_tas_mm_3T                  ******* 16.1    15.42    16.27  2857.70  2965.45
 dbt_tas_distribution_new       ******* ****  1332.18  1362.98  2548.65  2609.53
 dbt_tas_mm_2                   ******* 16.1    20.09    21.95  2441.01  2533.55
 change_split                   ******* 15.5   161.30   172.56  2274.07  2345.03
 G_occ_vir                           21  8.0     0.67     0.79  2317.54  2321.79
 scf_env_do_scf                       1  3.0     0.00     0.00  2188.96  2188.97
 scf_env_do_scf_inner_loop           35  4.0     0.02     0.03  2188.96  2188.97
 dbt_tas_reshape                ******* 15.5   445.79   466.10  2101.29  2181.28
 qs_scf_new_mos_kp                   35  5.0     0.00     0.00  2170.10  2170.37
 do_general_diag_kp                  35  6.0     2.39     2.55  2170.10  2170.37
 dbt_tas_replicate              ******* 15.0   919.93   975.31  2042.63  2120.42
 mp_cart_create                 *******  1.3  1670.49  1723.03  1836.70  1892.83
 mp_alltoall_i22                4838768  9.5  1718.80  1799.40  1718.80  1799.40
 dbt_tas_mm_1N                  ******* 15.5     8.11     8.83  1646.70  1707.65
 fm_add_ikp_to_rs                290304  9.0  1059.81  1147.01  1540.75  1633.70
 convert_to_new_pgrid           ******* -9.1   813.35   870.88  1489.00  1580.50
 parallel_gemm_cfm               763516  8.6     0.41     0.49  1432.59  1501.84
 parallel_gemm_cfm_cosma         763516  9.6  1432.18  1501.46  1432.18  1501.46
 dbm_reserve_blocks             *******  5.2  1377.16  1465.17  1377.16  1465.17
 dbt_tas_reserve_blocks_index   *******  2.2   197.55   207.87  1357.33  1430.63
 compute_QP_energies                  1  7.0     0.09     0.11  1373.68  1373.99
 trafo_to_k_and_nn               153098  8.0     0.50     0.64  1373.00  1373.33
 dbcsr_desymmetrize_deep        2579781  8.0    19.80    22.49  1233.90  1270.44
 dbt_tas_copy                   ******* 12.7   567.96   687.75  1038.97  1249.72
 dbt_tas_create_new             ******* -4.1  1145.13  1211.35  1145.13  1211.35
 mp_comm_dup                    ******* ****  1058.71  1094.43  1136.58  1179.69
 dbcsr_complete_redistribute    2258987  9.0    39.84    94.61  1130.67  1148.16
 dbt_remap                      4415226 11.0   412.16   474.67  1063.23  1128.35
 dbt_tas_reserve_blocks_templat ******* 14.0   391.45   440.34   907.03  1014.76
 dbt_permute_index              ******* -9.6   791.41   846.14   901.89   961.09
 fm_trafo_rs_to_ikp              153098  9.0   570.82   599.50   854.86   917.62
 copy_dbcsr_to_fm               1445085  7.6     7.76     8.07   819.31   837.86
 mp_comm_split_direct           ******* -6.6   742.67   769.22   796.55   827.09
 rskp_transform                  567348  7.2    11.37   806.49    11.37   806.49
 mp_comm_free                   *******  1.5   748.04   783.54   748.04   783.54
 dbt_reserve_blocks_index_array ******* 13.1    79.14    86.26   714.38   772.49
 dbm_copy                       ******* 16.0   675.65   730.02   675.65   730.02
 dbt_reserve_blocks_index       ******* 14.0    96.71   104.88   642.72   697.57
 dbt_tas_reshape_buffer_obtain  ******* 16.5   359.43   377.49   670.73   695.28
 copy_fm_to_dbcsr                813902  8.8     2.24     2.42   590.24   633.31
 dbt_tas_reshape_buffer_fill    ******* 16.5   597.34   631.26   597.34   631.26
 create_and_init_bs_env_for_gw        1  6.0     0.01     0.04   608.20   608.26
 dbt_tas_merge                  ******* 15.1   442.32   471.25   574.63   603.24
 dos_pdos_ldos                        1  5.0     0.05     0.05   601.15   601.44
 kpoint_density_transform            35  7.0     0.84     0.89   590.79   590.86
 add_ikp_to_rs                  ******* ****   496.46   535.82   496.46   535.82
 compute_W_real_space                 1  7.0     0.10     0.44   527.60   528.16
 SOC_ev                           27836  6.0     0.15     0.19   523.75   524.20
 dbt_align_index                ******* 11.5    82.03    85.70   489.43   507.31
 reshape_mm_template            8830452 15.5   289.95   311.08   459.02   482.55
 setup_parallelization_Delta_R        1  7.0     0.00     0.00   442.57   442.57
 compute_n_tensor_ops_Delta_R         1  8.0   119.33   154.08   442.53   442.53
 dbm_filter                     ******* 14.9   413.40   440.29   413.40   440.29
 dbt_tas_mp_comm                ******* 13.1    47.40    49.22   409.27   421.51
 compute_Minv_and_Vsqrt               1  8.0     0.00     0.00   419.13   419.69
 build_2c_coulomb_matrix_kp_sma       2  9.0     1.25     1.62   405.82   406.34
 add_rs_to_ikp                  *******  1.0   316.38   367.48   316.38   367.48
 cp_cfm_heevd                     57562  7.5     0.04     0.04   341.00   342.62
 cp_cfm_heevd_base                57562  8.5   340.97   342.58   340.97   342.58
 transform_dmat                  241920  8.0     4.75   342.26     4.75   342.26
 dbt_copy_nocomm                ******* 11.0   165.77   180.50   309.20   337.03
 mp_cart_get                    ******* -1.3   309.67   326.18   309.67   326.18
 dbm_scale                      ******* -8.1   305.21   324.22   305.21   324.22
 fm_to_local_tensor              328509  9.0     4.18     4.47   311.01   311.04
 build_2c_coulomb_matrix_kp_sma  995328 10.0   294.83   308.30   294.83   308.30
 dbt_communicate_buffer         ******* 13.1   272.25   308.13   272.25   308.13
 dbt_distribution_new_expert    9487480 12.4    51.15    52.24   298.27   305.90
 dbt_destroy                    ******* -8.3   265.02   283.50   286.91   304.68
 mp_comm_size                   ******* -0.0   284.79   303.40   284.79   303.40
 dbm_add                        ******* 15.0   284.21   301.46   284.21   301.46
 rsmat_to_kp                      83508  7.2     0.63     0.67   267.91   269.57
 mp_comm_rank                   ******* -0.0   214.50   246.63   214.50   246.63
 dbt_tas_reshape_get_coord      ******* 16.5   215.78   234.18   215.78   234.18
 create_and_init_bs_env               1  5.0     0.00     0.00   222.48   222.48
 compute_cfm_mo_coeff_kp_and_ei       1  6.0     0.03     0.04   222.47   222.47
 cp_fm_start_copy_general       1451520  7.3     6.03    10.80   212.24   217.74
 mp_sum_iv                        27860  9.0   103.87   194.61   103.87   194.61
 mp_allgather_i                 2903040  8.3   172.82   188.32   172.82   188.32
 mp_cart_sub                    2890199  9.6   187.75   188.15   187.75   188.15
 dbt_create_new                 4743740 11.9    33.84    35.45   170.12   176.32
 global_matrix_to_local_matrix   328509 10.0     2.79     4.15   149.02   162.28
 mp_alltoall_i                  *******  2.4   150.09   160.13   150.09   160.13
 dbt_reserve_blocks_template    ******* 12.0    45.87    52.94   143.43   156.89
 dbcsr_finalize                 7451030 10.2    22.51    24.86   132.56   149.98
 local_dbt_to_global_fm              16  8.0     0.34     0.39   148.37   148.37
 soc                                  1  5.0     0.00     0.00   133.01   133.01
 H_KS_spinor_kp                       1  6.0     0.09     0.11   132.80   132.82
 cp_cfm_geeig_canon               13918  7.0     0.06     0.06   123.87   124.29
 dbt_create_template            *******  8.9    89.32    96.35    89.32    96.35
 dbt_create_3c_R1_R2                 12  8.0     9.64    10.45    88.58    95.35
 mp_alltoall_d11v               ******* 10.0    40.64    93.75    40.64    93.75
 mp_sum_l                       *******  1.6    84.99    88.61    84.99    88.61
 mp_sum_i                       ******* 16.0    80.48    83.78    80.48    83.78
 dbt_tas_reshape_communicate_bu ******* 16.5    42.87    47.55    76.28    81.29
 mp_max_i                       ******* -0.2    73.86    81.18    73.86    81.18
 trafo_V_xc_R_to_kp                   1  7.0     0.05     0.06    78.89    79.40
 dbt_tas_reshape_alltoall       ******* 16.5    39.43    43.41    72.93    77.95
 dbcsr_merge_all                2799892 11.2    42.60    49.13    70.38    77.57
 get_V_tr_R                           9  8.9     0.24     0.38    75.06    75.40
 dbt_pgrid_create_expert        9487483 13.4    11.23    12.71    71.25    74.57
 compute_proj_mo_on_kind          13918  6.0     0.17     0.21    73.93    74.46
 mp_alltoall_i11v               9356742  9.8    61.23    72.82    61.23    72.82
 mp_waitall_1                   7156157  9.8    55.73    69.13    55.73    69.13
 send_sizes_1                    328509 11.0     0.19     0.21    66.25    68.24
 local_dbt_to_global_mat         194672  9.0     1.20     1.30    51.96    65.32
 send_data                       328509 11.0     0.20     0.21    52.43    65.28
 communicate_buffer              328509 12.0     1.27    19.59    52.23    65.09
 fm_MWM_R_t_to_local_tensor_W_R       5  8.0     0.05     0.06    64.11    64.11
 add_V_L                         995328 10.0     3.84    61.68     3.84    61.68
 compute_3c_integrals                 1  7.0     0.88     0.94    61.43    61.44
 mp_bcast_i                     ******* -6.6    49.39    58.98    49.39    58.98
 mult_W_with_Minv                     5  8.0     0.02     0.02    56.27    56.28
 dbcsr_filter_anytype           1546494 10.9     5.55     6.11    39.00    56.13
 dbt_tas_communicate_buffer     ******* ****    52.50    55.55    52.50    55.55
 destroy_t_2d                        12  8.0    12.71    14.18    49.26    54.78
 trafo_rs_to_ikp                   4698  8.4    17.63    18.64    49.98    53.01
 mp_sum_dm                       995434 10.0    46.42    52.83    46.42    52.83
 build_3c_integrals                   1  8.0    36.38    40.79    48.47    52.71
 dbt_nd_mp_comm                 4743735 11.9     6.96     7.25    48.28    49.58
 mp_dims_create                 ******* 14.4    37.49    43.09    37.49    43.09
 dbt_tas_replicate_communicate_ ******* 15.9    21.71    22.83    35.92    38.01
 mp_sum_dv                       236716  8.5    31.81    37.65    31.81    37.65
 local_matrix_to_global_matrix   194672 10.0     0.35     0.37    24.46    37.51
 dbt_tas_replicate_alltoall     ******* 15.9    19.33    21.27    33.67    36.47
 dbcsr_work_create              5379673  9.6    20.68    24.24    32.07    36.28
 dbt_create_matrix               328509 10.0     1.82     1.86    34.81    35.64
 get_Minv_Vtr_Minv_R                  1  8.0     0.01     0.02    34.77    35.10
 dbcsr_iterator_start           ******* 10.2    30.19    31.09    33.00    33.99
 dbcsr_work_destroy_all         5379673 10.6    18.96    21.94    29.59    33.20
 dbt_buffer_get_index           *******  6.3    27.17    30.68    27.17    30.68
 dbt_distribution_destroy       9487480 12.4    22.12    24.09    27.85    29.82
 dbcsr_create_new               7856420  9.2    23.38    24.86    27.46    28.98
 mp_bcast_iv                    5806111  8.3    25.02    28.32    25.02    28.32
 add_ikp_to_all_rs                 3078  8.2    11.30    11.63    26.84    27.80
 mp_cart_rank                   ******* 15.9    24.30    27.04    24.30    27.04
 tree_to_linear_d               2379827 12.1    21.63    25.20    21.63    25.20
 qs_ks_build_kohn_sham_matrix        38  7.1     0.05     0.07     5.39    25.12
 qs_ks_update_qs_env                 35  5.0     0.00     0.00     6.87    25.05
 copy_fm_to_dbcsr_bc             813902  9.8     6.95     7.31    23.43    24.37
 dbt_tas_merge_alltoall         ******* 16.1    12.77    14.05    22.22    23.62
 copy_dbcsr_to_fm_bc            1445085  8.6     9.14     9.75    22.28    23.28
 rebuild_ks_matrix                   35  6.0     0.00     0.00     4.98    23.15
 set_blocks                      194672 11.0     2.23     3.05    11.59    22.08
 dbcsr_data_release             ******* 11.3    18.99    21.31    18.99    21.31
 update_ks_atom                      38  8.1     0.29    20.02     0.31    20.04
 dbt_tas_merge_communicate_buff ******* 16.1    13.88    14.56    18.77    19.79
 dbcsr_iterator_stop            ******* 10.2    16.04    16.71    18.14    18.87
 dbcsr_data_new                 ******* 10.7    16.71    18.19    16.71    18.19
 dbcsr_destroy                  7543720  9.0     8.11    10.10    15.39    16.93
 get_data                        328509 11.0     5.37    16.14     5.85    16.69
 heuristic_RI_regularization          1  7.0     0.00     0.00    13.93    13.94
 send_sizes_2                    328509 11.0     0.18     0.20    11.77    13.70
 hybrid_alltoall_any            2579781  9.0     6.15     6.43     9.93    12.15
 cp_dbcsr_alloc_block_from_nbl   298471  9.0     0.57    11.27     0.77    12.10
 dbt_copy_matrix_to_tensor       328509 10.0     3.67     3.94    10.26    10.67
 mp_bcast_im                    2903040  8.3     6.85     9.27     6.85     9.27
 add_to_DOS_PDOS                  55672  6.5     8.41     8.82     8.41     8.82
 quick_finalize                 2579781 10.0     3.52     4.44     5.81     8.32
 reserve_blocks                  328509 11.0     0.76     0.79     8.02     8.29
 dbcsr_copy                      798093  9.4     1.53     1.71     4.45     8.13
 setup_cells_3c                       1  7.0     0.70     0.72     8.03     8.04
 mp_isend_dv                    *******  9.5     0.65     7.98     0.65     7.98
 alloc_block_3c                       1  9.0     1.32     1.35     6.94     7.40
 comm_size                       194672 11.0     0.15     0.18     6.96     7.38
 qs_rho_update_rho_low               36  5.0     0.00     0.00     7.33     7.35
 build_3c_integral_block         230648  8.0     3.82     4.15     6.91     7.23
 mp_isend_im2                   ******* 12.7     0.12     7.13     0.12     7.13
 add_cfm_submat                  139180  7.0     0.54     0.55     4.86     6.89
 -------------------------------------------------------------------------------

 The number of warnings for this run is : 0
 
 -------------------------------------------------------------------------------
  **** **** ******  **  PROGRAM ENDED AT                 2025-02-27 06:01:43.128
 ***** ** ***  *** **   PROGRAM RAN ON                    n2lcn0108.ab2021.local
 **    ****   ******    PROGRAM RAN BY                                  metdyn02
 ***** **    ** ** **   PROGRAM PROCESS ID                                930958
  **** **  *******  **  PROGRAM STOPPED IN /scratch/hpc-prf-metdyn/metdyn02_Remi
                                           /08_3D/03_SiC
