SIRIUS 7.5.2, git hash: https://api.github.com/repos/electronic-structure/SIRIUS/git/ref/tags/v7.5.2
 DBCSR| CPU Multiplication driver                                           XSMM (U)
 DBCSR| Multrec recursion limit                                              512 (U)
 DBCSR| Multiplication stack size                                           1000 (D)
 DBCSR| Maximum elements for images                                    UNLIMITED (U)
 DBCSR| Multiplicative factor virtual images                                   1 (U)
 DBCSR| Use multiplication densification                                       T (D)
 DBCSR| Multiplication size stacks                                             3 (U)
 DBCSR| Use memory pool for CPU allocation                                     F (U)
 DBCSR| Number of 3D layers                                               SINGLE (U)
 DBCSR| Use MPI memory allocation                                              F (U)
 DBCSR| Use RMA algorithm                                                      F (U)
 DBCSR| Use Communication thread                                               T (U)
 DBCSR| Communication thread load                                             30 (D)
 DBCSR| MPI: My process id                                                     0
 DBCSR| MPI: Number of processes                                             128
 DBCSR| OMP: Current number of threads                                        16
 DBCSR| OMP: Max number of threads                                            16
 DBCSR| Split modifier for TAS multiplication algorithm                  1.0E+00 (U)


  **** **** ******  **  PROGRAM STARTED AT               2025-02-17 19:23:22.829
 ***** ** ***  *** **   PROGRAM STARTED ON                n2lcn0101.ab2021.local
 **    ****   ******    PROGRAM STARTED BY                              metdyn02
 ***** **    ** ** **   PROGRAM PROCESS ID                               1258181
  **** **  *******  **  PROGRAM STARTED IN /scratch/hpc-prf-metdyn/metdyn02_Remi
                                           /08_3D/06_AlAs

 CP2K| version string:                 CP2K version 2025.1 (Development Version)
 CP2K| source code revision number:                                  git:a2ea924
 CP2K| cp2kflags: omp libint fftw3 libxc libgrpp elpa parallel scalapack mpi_f08
 CP2K|             cosma xsmm plumed2 spglib sirius libvori libbqb libvdwxc hdf5
 CP2K| is freely available from                            https://www.cp2k.org/
 CP2K| Program compiled at                          Sat Feb  1 00:09:14 CET 2025
 CP2K| Program compiled on                                              n2login1
 CP2K| Program compiled for                                                local
 CP2K| Data directory path    /opt/software/pc2/EB-SW/software/CP2K/2024.1-foss-
 CP2K| Input file name                                                    GW.inp

 GLOBAL| Force Environment number                                              1
 GLOBAL| Basis set file name            /scratch/hpc-prf-metdyn/metdyn02_Remi/BA
 GLOBAL| Potential file name            /pc2/groups/hpc-prf-metdyn/metdyn02_Remi
 GLOBAL| MM Potential file name                                     MM_POTENTIAL
 GLOBAL| Coordinate file name                                      __STD_INPUT__
 GLOBAL| Method name                                                        CP2K
 GLOBAL| Project name                                                       AlAs
 GLOBAL| Run type                                                         ENERGY
 GLOBAL| FFT library                                                       FFTW3
 GLOBAL| Diagonalization library                                            ELPA
 GLOBAL| DGEMM library                                                      BLAS
 GLOBAL| Minimum number of eigenvectors for ELPA usage                        16
 GLOBAL| Orthonormality check for eigenvectors                          DISABLED
 GLOBAL| Matrix multiplication library                                     COSMA
 GLOBAL| All-to-all communication in single precision                          F
 GLOBAL| FFTs using library dependent lengths                                  F
 GLOBAL| Grid backend                                                       AUTO
 GLOBAL| Global print level                                               MEDIUM
 GLOBAL| MPI I/O enabled                                                       T
 GLOBAL| Total number of message passing processes                           128
 GLOBAL| Number of threads for this process                                   16
 GLOBAL| This output is from process                                           0
 GLOBAL| OpenMP stack size per thread (OMP_STACKSIZE)                    default
 GLOBAL| CPU model name                          AMD EPYC 7763 64-Core Processor
 GLOBAL| CPUID                                                              1002

 MEMORY| system memory details [Kb]
 MEMORY|                        rank 0           min           max       average
 MEMORY| MemTotal           1056622244    1056622244    1056622248    1056622246
 MEMORY| MemFree            1044868992    1038722380    1045823388    1043554686
 MEMORY| Buffers                272252         33400        286692        179705
 MEMORY| Cached                5054760       4361960      10288572       6104848
 MEMORY| Slab                  1541384       1483580       2101856       1770725
 MEMORY| SReclaimable           310124        259316        470952        341121
 MEMORY| MemLikelyFree      1050506128    1049581892    1050921252    1050180362


 *** Fundamental physical constants (SI units) ***

 *** Literature: B. J. Mohr and B. N. Taylor,
 ***             CODATA recommended values of the fundamental physical
 ***             constants: 2006, Web Version 5.1
 ***             http://physics.nist.gov/constants

 Speed of light in vacuum [m/s]                             2.99792458000000E+08
 Magnetic constant or permeability of vacuum [N/A**2]       1.25663706143592E-06
 Electric constant or permittivity of vacuum [F/m]          8.85418781762039E-12
 Planck constant (h) [J*s]                                  6.62606896000000E-34
 Planck constant (h-bar) [J*s]                              1.05457162825177E-34
 Elementary charge [C]                                      1.60217648700000E-19
 Electron mass [kg]                                         9.10938215000000E-31
 Electron g factor [ ]                                     -2.00231930436220E+00
 Proton mass [kg]                                           1.67262163700000E-27
 Fine-structure constant                                    7.29735253760000E-03
 Rydberg constant [1/m]                                     1.09737315685270E+07
 Avogadro constant [1/mol]                                  6.02214179000000E+23
 Boltzmann constant [J/K]                                   1.38065040000000E-23
 Atomic mass unit [kg]                                      1.66053878200000E-27
 Bohr radius [m]                                            5.29177208590000E-11

 *** Conversion factors ***

 [u] -> [a.u.]                                              1.82288848426455E+03
 [Angstrom] -> [Bohr] = [a.u.]                              1.88972613288564E+00
 [a.u.] = [Bohr] -> [Angstrom]                              5.29177208590000E-01
 [a.u.] -> [s]                                              2.41888432650478E-17
 [a.u.] -> [fs]                                             2.41888432650478E-02
 [a.u.] -> [J]                                              4.35974393937059E-18
 [a.u.] -> [N]                                              8.23872205491840E-08
 [a.u.] -> [K]                                              3.15774647902944E+05
 [a.u.] -> [kJ/mol]                                         2.62549961709828E+03
 [a.u.] -> [kcal/mol]                                       6.27509468713739E+02
 [a.u.] -> [Pa]                                             2.94210107994716E+13
 [a.u.] -> [bar]                                            2.94210107994716E+08
 [a.u.] -> [atm]                                            2.90362800883016E+08
 [a.u.] -> [eV]                                             2.72113838565563E+01
 [a.u.] -> [Hz]                                             6.57968392072181E+15
 [a.u.] -> [1/cm] (wave numbers)                            2.19474631370540E+05
 [a.u./Bohr**2] -> [1/cm]                                   5.14048714338585E+03
 

 CELL_TOP| Volume [angstrom^3]:                                        45.330374
 CELL_TOP| Vector a [angstrom     2.830     0.000     2.830   |a| =     4.002224
 CELL_TOP| Vector b [angstrom     2.830     2.830     0.000   |b| =     4.002224
 CELL_TOP| Vector c [angstrom     0.000     2.830     2.830   |c| =     4.002224
 CELL_TOP| Angle (b,c), alpha [degree]:                                60.000000
 CELL_TOP| Angle (a,c), beta  [degree]:                                60.000000
 CELL_TOP| Angle (a,b), gamma [degree]:                                60.000000
 CELL_TOP| Numerically orthorhombic:                                          NO
 CELL_TOP| Periodicity                                                       XYZ

 GENERATE|  Preliminary Number of Bonds generated:                             0
 GENERATE|  Achieved consistency in connectivity generation.

 CELL| Volume [angstrom^3]:                                            45.330374
 CELL| Vector a [angstrom]:       2.830     0.000     2.830   |a| =     4.002224
 CELL| Vector b [angstrom]:       2.830     2.830     0.000   |b| =     4.002224
 CELL| Vector c [angstrom]:       0.000     2.830     2.830   |c| =     4.002224
 CELL| Angle (b,c), alpha [degree]:                                    60.000000
 CELL| Angle (a,c), beta  [degree]:                                    60.000000
 CELL| Angle (a,b), gamma [degree]:                                    60.000000
 CELL| Numerically orthorhombic:                                              NO
 CELL| Periodicity                                                           XYZ

 CELL_REF| Volume [angstrom^3]:                                        45.330374
 CELL_REF| Vector a [angstrom     2.830     0.000     2.830   |a| =     4.002224
 CELL_REF| Vector b [angstrom     2.830     2.830     0.000   |b| =     4.002224
 CELL_REF| Vector c [angstrom     0.000     2.830     2.830   |c| =     4.002224
 CELL_REF| Angle (b,c), alpha [degree]:                                60.000000
 CELL_REF| Angle (a,c), beta  [degree]:                                60.000000
 CELL_REF| Angle (a,b), gamma [degree]:                                60.000000
 CELL_REF| Numerically orthorhombic:                                          NO
 CELL_REF| Periodicity                                                       XYZ

 *******************************************************************************
                                    Kpoints
 *******************************************************************************
 BRILLOUIN| K-point scheme                                        Monkhorst-Pack
 BRILLOUIN| K-Point grid                                            16   16   16
 BRILLOUIN| Accuracy in Symmetry determination                      0.100000E-05
 BRILLOUIN| K-Point point group symmetrization                               OFF
 BRILLOUIN| Wavefunction type                                            COMPLEX
 BRILLOUIN| List of Kpoints [2 Pi/Bohr]                                     2048
 BRILLOUIN| Number           Weight            X              Y              Z
 BRILLOUIN|     1           0.00049       -0.46875       -0.46875       -0.46875
 BRILLOUIN|     2           0.00049       -0.46875       -0.46875       -0.40625
 BRILLOUIN|     3           0.00049       -0.46875       -0.46875       -0.34375
 BRILLOUIN|     4           0.00049       -0.46875       -0.46875       -0.28125
 BRILLOUIN|     5           0.00049       -0.46875       -0.46875       -0.21875
 BRILLOUIN|     6           0.00049       -0.46875       -0.46875       -0.15625
 BRILLOUIN|     7           0.00049       -0.46875       -0.46875       -0.09375
 BRILLOUIN|     8           0.00049       -0.46875       -0.46875       -0.03125
 BRILLOUIN|     9           0.00049       -0.46875       -0.46875        0.03125
 BRILLOUIN|    10           0.00049       -0.46875       -0.46875        0.09375
 BRILLOUIN|    11           0.00049       -0.46875       -0.46875        0.15625
 BRILLOUIN|    12           0.00049       -0.46875       -0.46875        0.21875
 BRILLOUIN|    13           0.00049       -0.46875       -0.46875        0.28125
 BRILLOUIN|    14           0.00049       -0.46875       -0.46875        0.34375
 BRILLOUIN|    15           0.00049       -0.46875       -0.46875        0.40625
 BRILLOUIN|    16           0.00049       -0.46875       -0.46875        0.46875
 BRILLOUIN|    17           0.00049       -0.46875       -0.40625       -0.46875
 BRILLOUIN|    18           0.00049       -0.46875       -0.40625       -0.40625
 BRILLOUIN|    19           0.00049       -0.46875       -0.40625       -0.34375
 BRILLOUIN|    20           0.00049       -0.46875       -0.40625       -0.28125
 BRILLOUIN|    21           0.00049       -0.46875       -0.40625       -0.21875
 BRILLOUIN|    22           0.00049       -0.46875       -0.40625       -0.15625
 BRILLOUIN|    23           0.00049       -0.46875       -0.40625       -0.09375
 BRILLOUIN|    24           0.00049       -0.46875       -0.40625       -0.03125
 BRILLOUIN|    25           0.00049       -0.46875       -0.40625        0.03125
 BRILLOUIN|    26           0.00049       -0.46875       -0.40625        0.09375
 BRILLOUIN|    27           0.00049       -0.46875       -0.40625        0.15625
 BRILLOUIN|    28           0.00049       -0.46875       -0.40625        0.21875
 BRILLOUIN|    29           0.00049       -0.46875       -0.40625        0.28125
 BRILLOUIN|    30           0.00049       -0.46875       -0.40625        0.34375
 BRILLOUIN|    31           0.00049       -0.46875       -0.40625        0.40625
 BRILLOUIN|    32           0.00049       -0.46875       -0.40625        0.46875
 BRILLOUIN|    33           0.00049       -0.46875       -0.34375       -0.46875
 BRILLOUIN|    34           0.00049       -0.46875       -0.34375       -0.40625
 BRILLOUIN|    35           0.00049       -0.46875       -0.34375       -0.34375
 BRILLOUIN|    36           0.00049       -0.46875       -0.34375       -0.28125
 BRILLOUIN|    37           0.00049       -0.46875       -0.34375       -0.21875
 BRILLOUIN|    38           0.00049       -0.46875       -0.34375       -0.15625
 BRILLOUIN|    39           0.00049       -0.46875       -0.34375       -0.09375
 BRILLOUIN|    40           0.00049       -0.46875       -0.34375       -0.03125
 BRILLOUIN|    41           0.00049       -0.46875       -0.34375        0.03125
 BRILLOUIN|    42           0.00049       -0.46875       -0.34375        0.09375
 BRILLOUIN|    43           0.00049       -0.46875       -0.34375        0.15625
 BRILLOUIN|    44           0.00049       -0.46875       -0.34375        0.21875
 BRILLOUIN|    45           0.00049       -0.46875       -0.34375        0.28125
 BRILLOUIN|    46           0.00049       -0.46875       -0.34375        0.34375
 BRILLOUIN|    47           0.00049       -0.46875       -0.34375        0.40625
 BRILLOUIN|    48           0.00049       -0.46875       -0.34375        0.46875
 BRILLOUIN|    49           0.00049       -0.46875       -0.28125       -0.46875
 BRILLOUIN|    50           0.00049       -0.46875       -0.28125       -0.40625
 BRILLOUIN|    51           0.00049       -0.46875       -0.28125       -0.34375
 BRILLOUIN|    52           0.00049       -0.46875       -0.28125       -0.28125
 BRILLOUIN|    53           0.00049       -0.46875       -0.28125       -0.21875
 BRILLOUIN|    54           0.00049       -0.46875       -0.28125       -0.15625
 BRILLOUIN|    55           0.00049       -0.46875       -0.28125       -0.09375
 BRILLOUIN|    56           0.00049       -0.46875       -0.28125       -0.03125
 BRILLOUIN|    57           0.00049       -0.46875       -0.28125        0.03125
 BRILLOUIN|    58           0.00049       -0.46875       -0.28125        0.09375
 BRILLOUIN|    59           0.00049       -0.46875       -0.28125        0.15625
 BRILLOUIN|    60           0.00049       -0.46875       -0.28125        0.21875
 BRILLOUIN|    61           0.00049       -0.46875       -0.28125        0.28125
 BRILLOUIN|    62           0.00049       -0.46875       -0.28125        0.34375
 BRILLOUIN|    63           0.00049       -0.46875       -0.28125        0.40625
 BRILLOUIN|    64           0.00049       -0.46875       -0.28125        0.46875
 BRILLOUIN|    65           0.00049       -0.46875       -0.21875       -0.46875
 BRILLOUIN|    66           0.00049       -0.46875       -0.21875       -0.40625
 BRILLOUIN|    67           0.00049       -0.46875       -0.21875       -0.34375
 BRILLOUIN|    68           0.00049       -0.46875       -0.21875       -0.28125
 BRILLOUIN|    69           0.00049       -0.46875       -0.21875       -0.21875
 BRILLOUIN|    70           0.00049       -0.46875       -0.21875       -0.15625
 BRILLOUIN|    71           0.00049       -0.46875       -0.21875       -0.09375
 BRILLOUIN|    72           0.00049       -0.46875       -0.21875       -0.03125
 BRILLOUIN|    73           0.00049       -0.46875       -0.21875        0.03125
 BRILLOUIN|    74           0.00049       -0.46875       -0.21875        0.09375
 BRILLOUIN|    75           0.00049       -0.46875       -0.21875        0.15625
 BRILLOUIN|    76           0.00049       -0.46875       -0.21875        0.21875
 BRILLOUIN|    77           0.00049       -0.46875       -0.21875        0.28125
 BRILLOUIN|    78           0.00049       -0.46875       -0.21875        0.34375
 BRILLOUIN|    79           0.00049       -0.46875       -0.21875        0.40625
 BRILLOUIN|    80           0.00049       -0.46875       -0.21875        0.46875
 BRILLOUIN|    81           0.00049       -0.46875       -0.15625       -0.46875
 BRILLOUIN|    82           0.00049       -0.46875       -0.15625       -0.40625
 BRILLOUIN|    83           0.00049       -0.46875       -0.15625       -0.34375
 BRILLOUIN|    84           0.00049       -0.46875       -0.15625       -0.28125
 BRILLOUIN|    85           0.00049       -0.46875       -0.15625       -0.21875
 BRILLOUIN|    86           0.00049       -0.46875       -0.15625       -0.15625
 BRILLOUIN|    87           0.00049       -0.46875       -0.15625       -0.09375
 BRILLOUIN|    88           0.00049       -0.46875       -0.15625       -0.03125
 BRILLOUIN|    89           0.00049       -0.46875       -0.15625        0.03125
 BRILLOUIN|    90           0.00049       -0.46875       -0.15625        0.09375
 BRILLOUIN|    91           0.00049       -0.46875       -0.15625        0.15625
 BRILLOUIN|    92           0.00049       -0.46875       -0.15625        0.21875
 BRILLOUIN|    93           0.00049       -0.46875       -0.15625        0.28125
 BRILLOUIN|    94           0.00049       -0.46875       -0.15625        0.34375
 BRILLOUIN|    95           0.00049       -0.46875       -0.15625        0.40625
 BRILLOUIN|    96           0.00049       -0.46875       -0.15625        0.46875
 BRILLOUIN|    97           0.00049       -0.46875       -0.09375       -0.46875
 BRILLOUIN|    98           0.00049       -0.46875       -0.09375       -0.40625
 BRILLOUIN|    99           0.00049       -0.46875       -0.09375       -0.34375
 BRILLOUIN|   100           0.00049       -0.46875       -0.09375       -0.28125
 BRILLOUIN|   101           0.00049       -0.46875       -0.09375       -0.21875
 BRILLOUIN|   102           0.00049       -0.46875       -0.09375       -0.15625
 BRILLOUIN|   103           0.00049       -0.46875       -0.09375       -0.09375
 BRILLOUIN|   104           0.00049       -0.46875       -0.09375       -0.03125
 BRILLOUIN|   105           0.00049       -0.46875       -0.09375        0.03125
 BRILLOUIN|   106           0.00049       -0.46875       -0.09375        0.09375
 BRILLOUIN|   107           0.00049       -0.46875       -0.09375        0.15625
 BRILLOUIN|   108           0.00049       -0.46875       -0.09375        0.21875
 BRILLOUIN|   109           0.00049       -0.46875       -0.09375        0.28125
 BRILLOUIN|   110           0.00049       -0.46875       -0.09375        0.34375
 BRILLOUIN|   111           0.00049       -0.46875       -0.09375        0.40625
 BRILLOUIN|   112           0.00049       -0.46875       -0.09375        0.46875
 BRILLOUIN|   113           0.00049       -0.46875       -0.03125       -0.46875
 BRILLOUIN|   114           0.00049       -0.46875       -0.03125       -0.40625
 BRILLOUIN|   115           0.00049       -0.46875       -0.03125       -0.34375
 BRILLOUIN|   116           0.00049       -0.46875       -0.03125       -0.28125
 BRILLOUIN|   117           0.00049       -0.46875       -0.03125       -0.21875
 BRILLOUIN|   118           0.00049       -0.46875       -0.03125       -0.15625
 BRILLOUIN|   119           0.00049       -0.46875       -0.03125       -0.09375
 BRILLOUIN|   120           0.00049       -0.46875       -0.03125       -0.03125
 BRILLOUIN|   121           0.00049       -0.46875       -0.03125        0.03125
 BRILLOUIN|   122           0.00049       -0.46875       -0.03125        0.09375
 BRILLOUIN|   123           0.00049       -0.46875       -0.03125        0.15625
 BRILLOUIN|   124           0.00049       -0.46875       -0.03125        0.21875
 BRILLOUIN|   125           0.00049       -0.46875       -0.03125        0.28125
 BRILLOUIN|   126           0.00049       -0.46875       -0.03125        0.34375
 BRILLOUIN|   127           0.00049       -0.46875       -0.03125        0.40625
 BRILLOUIN|   128           0.00049       -0.46875       -0.03125        0.46875
 BRILLOUIN|   129           0.00049       -0.46875        0.03125       -0.46875
 BRILLOUIN|   130           0.00049       -0.46875        0.03125       -0.40625
 BRILLOUIN|   131           0.00049       -0.46875        0.03125       -0.34375
 BRILLOUIN|   132           0.00049       -0.46875        0.03125       -0.28125
 BRILLOUIN|   133           0.00049       -0.46875        0.03125       -0.21875
 BRILLOUIN|   134           0.00049       -0.46875        0.03125       -0.15625
 BRILLOUIN|   135           0.00049       -0.46875        0.03125       -0.09375
 BRILLOUIN|   136           0.00049       -0.46875        0.03125       -0.03125
 BRILLOUIN|   137           0.00049       -0.46875        0.03125        0.03125
 BRILLOUIN|   138           0.00049       -0.46875        0.03125        0.09375
 BRILLOUIN|   139           0.00049       -0.46875        0.03125        0.15625
 BRILLOUIN|   140           0.00049       -0.46875        0.03125        0.21875
 BRILLOUIN|   141           0.00049       -0.46875        0.03125        0.28125
 BRILLOUIN|   142           0.00049       -0.46875        0.03125        0.34375
 BRILLOUIN|   143           0.00049       -0.46875        0.03125        0.40625
 BRILLOUIN|   144           0.00049       -0.46875        0.03125        0.46875
 BRILLOUIN|   145           0.00049       -0.46875        0.09375       -0.46875
 BRILLOUIN|   146           0.00049       -0.46875        0.09375       -0.40625
 BRILLOUIN|   147           0.00049       -0.46875        0.09375       -0.34375
 BRILLOUIN|   148           0.00049       -0.46875        0.09375       -0.28125
 BRILLOUIN|   149           0.00049       -0.46875        0.09375       -0.21875
 BRILLOUIN|   150           0.00049       -0.46875        0.09375       -0.15625
 BRILLOUIN|   151           0.00049       -0.46875        0.09375       -0.09375
 BRILLOUIN|   152           0.00049       -0.46875        0.09375       -0.03125
 BRILLOUIN|   153           0.00049       -0.46875        0.09375        0.03125
 BRILLOUIN|   154           0.00049       -0.46875        0.09375        0.09375
 BRILLOUIN|   155           0.00049       -0.46875        0.09375        0.15625
 BRILLOUIN|   156           0.00049       -0.46875        0.09375        0.21875
 BRILLOUIN|   157           0.00049       -0.46875        0.09375        0.28125
 BRILLOUIN|   158           0.00049       -0.46875        0.09375        0.34375
 BRILLOUIN|   159           0.00049       -0.46875        0.09375        0.40625
 BRILLOUIN|   160           0.00049       -0.46875        0.09375        0.46875
 BRILLOUIN|   161           0.00049       -0.46875        0.15625       -0.46875
 BRILLOUIN|   162           0.00049       -0.46875        0.15625       -0.40625
 BRILLOUIN|   163           0.00049       -0.46875        0.15625       -0.34375
 BRILLOUIN|   164           0.00049       -0.46875        0.15625       -0.28125
 BRILLOUIN|   165           0.00049       -0.46875        0.15625       -0.21875
 BRILLOUIN|   166           0.00049       -0.46875        0.15625       -0.15625
 BRILLOUIN|   167           0.00049       -0.46875        0.15625       -0.09375
 BRILLOUIN|   168           0.00049       -0.46875        0.15625       -0.03125
 BRILLOUIN|   169           0.00049       -0.46875        0.15625        0.03125
 BRILLOUIN|   170           0.00049       -0.46875        0.15625        0.09375
 BRILLOUIN|   171           0.00049       -0.46875        0.15625        0.15625
 BRILLOUIN|   172           0.00049       -0.46875        0.15625        0.21875
 BRILLOUIN|   173           0.00049       -0.46875        0.15625        0.28125
 BRILLOUIN|   174           0.00049       -0.46875        0.15625        0.34375
 BRILLOUIN|   175           0.00049       -0.46875        0.15625        0.40625
 BRILLOUIN|   176           0.00049       -0.46875        0.15625        0.46875
 BRILLOUIN|   177           0.00049       -0.46875        0.21875       -0.46875
 BRILLOUIN|   178           0.00049       -0.46875        0.21875       -0.40625
 BRILLOUIN|   179           0.00049       -0.46875        0.21875       -0.34375
 BRILLOUIN|   180           0.00049       -0.46875        0.21875       -0.28125
 BRILLOUIN|   181           0.00049       -0.46875        0.21875       -0.21875
 BRILLOUIN|   182           0.00049       -0.46875        0.21875       -0.15625
 BRILLOUIN|   183           0.00049       -0.46875        0.21875       -0.09375
 BRILLOUIN|   184           0.00049       -0.46875        0.21875       -0.03125
 BRILLOUIN|   185           0.00049       -0.46875        0.21875        0.03125
 BRILLOUIN|   186           0.00049       -0.46875        0.21875        0.09375
 BRILLOUIN|   187           0.00049       -0.46875        0.21875        0.15625
 BRILLOUIN|   188           0.00049       -0.46875        0.21875        0.21875
 BRILLOUIN|   189           0.00049       -0.46875        0.21875        0.28125
 BRILLOUIN|   190           0.00049       -0.46875        0.21875        0.34375
 BRILLOUIN|   191           0.00049       -0.46875        0.21875        0.40625
 BRILLOUIN|   192           0.00049       -0.46875        0.21875        0.46875
 BRILLOUIN|   193           0.00049       -0.46875        0.28125       -0.46875
 BRILLOUIN|   194           0.00049       -0.46875        0.28125       -0.40625
 BRILLOUIN|   195           0.00049       -0.46875        0.28125       -0.34375
 BRILLOUIN|   196           0.00049       -0.46875        0.28125       -0.28125
 BRILLOUIN|   197           0.00049       -0.46875        0.28125       -0.21875
 BRILLOUIN|   198           0.00049       -0.46875        0.28125       -0.15625
 BRILLOUIN|   199           0.00049       -0.46875        0.28125       -0.09375
 BRILLOUIN|   200           0.00049       -0.46875        0.28125       -0.03125
 BRILLOUIN|   201           0.00049       -0.46875        0.28125        0.03125
 BRILLOUIN|   202           0.00049       -0.46875        0.28125        0.09375
 BRILLOUIN|   203           0.00049       -0.46875        0.28125        0.15625
 BRILLOUIN|   204           0.00049       -0.46875        0.28125        0.21875
 BRILLOUIN|   205           0.00049       -0.46875        0.28125        0.28125
 BRILLOUIN|   206           0.00049       -0.46875        0.28125        0.34375
 BRILLOUIN|   207           0.00049       -0.46875        0.28125        0.40625
 BRILLOUIN|   208           0.00049       -0.46875        0.28125        0.46875
 BRILLOUIN|   209           0.00049       -0.46875        0.34375       -0.46875
 BRILLOUIN|   210           0.00049       -0.46875        0.34375       -0.40625
 BRILLOUIN|   211           0.00049       -0.46875        0.34375       -0.34375
 BRILLOUIN|   212           0.00049       -0.46875        0.34375       -0.28125
 BRILLOUIN|   213           0.00049       -0.46875        0.34375       -0.21875
 BRILLOUIN|   214           0.00049       -0.46875        0.34375       -0.15625
 BRILLOUIN|   215           0.00049       -0.46875        0.34375       -0.09375
 BRILLOUIN|   216           0.00049       -0.46875        0.34375       -0.03125
 BRILLOUIN|   217           0.00049       -0.46875        0.34375        0.03125
 BRILLOUIN|   218           0.00049       -0.46875        0.34375        0.09375
 BRILLOUIN|   219           0.00049       -0.46875        0.34375        0.15625
 BRILLOUIN|   220           0.00049       -0.46875        0.34375        0.21875
 BRILLOUIN|   221           0.00049       -0.46875        0.34375        0.28125
 BRILLOUIN|   222           0.00049       -0.46875        0.34375        0.34375
 BRILLOUIN|   223           0.00049       -0.46875        0.34375        0.40625
 BRILLOUIN|   224           0.00049       -0.46875        0.34375        0.46875
 BRILLOUIN|   225           0.00049       -0.46875        0.40625       -0.46875
 BRILLOUIN|   226           0.00049       -0.46875        0.40625       -0.40625
 BRILLOUIN|   227           0.00049       -0.46875        0.40625       -0.34375
 BRILLOUIN|   228           0.00049       -0.46875        0.40625       -0.28125
 BRILLOUIN|   229           0.00049       -0.46875        0.40625       -0.21875
 BRILLOUIN|   230           0.00049       -0.46875        0.40625       -0.15625
 BRILLOUIN|   231           0.00049       -0.46875        0.40625       -0.09375
 BRILLOUIN|   232           0.00049       -0.46875        0.40625       -0.03125
 BRILLOUIN|   233           0.00049       -0.46875        0.40625        0.03125
 BRILLOUIN|   234           0.00049       -0.46875        0.40625        0.09375
 BRILLOUIN|   235           0.00049       -0.46875        0.40625        0.15625
 BRILLOUIN|   236           0.00049       -0.46875        0.40625        0.21875
 BRILLOUIN|   237           0.00049       -0.46875        0.40625        0.28125
 BRILLOUIN|   238           0.00049       -0.46875        0.40625        0.34375
 BRILLOUIN|   239           0.00049       -0.46875        0.40625        0.40625
 BRILLOUIN|   240           0.00049       -0.46875        0.40625        0.46875
 BRILLOUIN|   241           0.00049       -0.46875        0.46875       -0.46875
 BRILLOUIN|   242           0.00049       -0.46875        0.46875       -0.40625
 BRILLOUIN|   243           0.00049       -0.46875        0.46875       -0.34375
 BRILLOUIN|   244           0.00049       -0.46875        0.46875       -0.28125
 BRILLOUIN|   245           0.00049       -0.46875        0.46875       -0.21875
 BRILLOUIN|   246           0.00049       -0.46875        0.46875       -0.15625
 BRILLOUIN|   247           0.00049       -0.46875        0.46875       -0.09375
 BRILLOUIN|   248           0.00049       -0.46875        0.46875       -0.03125
 BRILLOUIN|   249           0.00049       -0.46875        0.46875        0.03125
 BRILLOUIN|   250           0.00049       -0.46875        0.46875        0.09375
 BRILLOUIN|   251           0.00049       -0.46875        0.46875        0.15625
 BRILLOUIN|   252           0.00049       -0.46875        0.46875        0.21875
 BRILLOUIN|   253           0.00049       -0.46875        0.46875        0.28125
 BRILLOUIN|   254           0.00049       -0.46875        0.46875        0.34375
 BRILLOUIN|   255           0.00049       -0.46875        0.46875        0.40625
 BRILLOUIN|   256           0.00049       -0.46875        0.46875        0.46875
 BRILLOUIN|   257           0.00049       -0.40625       -0.46875       -0.46875
 BRILLOUIN|   258           0.00049       -0.40625       -0.46875       -0.40625
 BRILLOUIN|   259           0.00049       -0.40625       -0.46875       -0.34375
 BRILLOUIN|   260           0.00049       -0.40625       -0.46875       -0.28125
 BRILLOUIN|   261           0.00049       -0.40625       -0.46875       -0.21875
 BRILLOUIN|   262           0.00049       -0.40625       -0.46875       -0.15625
 BRILLOUIN|   263           0.00049       -0.40625       -0.46875       -0.09375
 BRILLOUIN|   264           0.00049       -0.40625       -0.46875       -0.03125
 BRILLOUIN|   265           0.00049       -0.40625       -0.46875        0.03125
 BRILLOUIN|   266           0.00049       -0.40625       -0.46875        0.09375
 BRILLOUIN|   267           0.00049       -0.40625       -0.46875        0.15625
 BRILLOUIN|   268           0.00049       -0.40625       -0.46875        0.21875
 BRILLOUIN|   269           0.00049       -0.40625       -0.46875        0.28125
 BRILLOUIN|   270           0.00049       -0.40625       -0.46875        0.34375
 BRILLOUIN|   271           0.00049       -0.40625       -0.46875        0.40625
 BRILLOUIN|   272           0.00049       -0.40625       -0.46875        0.46875
 BRILLOUIN|   273           0.00049       -0.40625       -0.40625       -0.46875
 BRILLOUIN|   274           0.00049       -0.40625       -0.40625       -0.40625
 BRILLOUIN|   275           0.00049       -0.40625       -0.40625       -0.34375
 BRILLOUIN|   276           0.00049       -0.40625       -0.40625       -0.28125
 BRILLOUIN|   277           0.00049       -0.40625       -0.40625       -0.21875
 BRILLOUIN|   278           0.00049       -0.40625       -0.40625       -0.15625
 BRILLOUIN|   279           0.00049       -0.40625       -0.40625       -0.09375
 BRILLOUIN|   280           0.00049       -0.40625       -0.40625       -0.03125
 BRILLOUIN|   281           0.00049       -0.40625       -0.40625        0.03125
 BRILLOUIN|   282           0.00049       -0.40625       -0.40625        0.09375
 BRILLOUIN|   283           0.00049       -0.40625       -0.40625        0.15625
 BRILLOUIN|   284           0.00049       -0.40625       -0.40625        0.21875
 BRILLOUIN|   285           0.00049       -0.40625       -0.40625        0.28125
 BRILLOUIN|   286           0.00049       -0.40625       -0.40625        0.34375
 BRILLOUIN|   287           0.00049       -0.40625       -0.40625        0.40625
 BRILLOUIN|   288           0.00049       -0.40625       -0.40625        0.46875
 BRILLOUIN|   289           0.00049       -0.40625       -0.34375       -0.46875
 BRILLOUIN|   290           0.00049       -0.40625       -0.34375       -0.40625
 BRILLOUIN|   291           0.00049       -0.40625       -0.34375       -0.34375
 BRILLOUIN|   292           0.00049       -0.40625       -0.34375       -0.28125
 BRILLOUIN|   293           0.00049       -0.40625       -0.34375       -0.21875
 BRILLOUIN|   294           0.00049       -0.40625       -0.34375       -0.15625
 BRILLOUIN|   295           0.00049       -0.40625       -0.34375       -0.09375
 BRILLOUIN|   296           0.00049       -0.40625       -0.34375       -0.03125
 BRILLOUIN|   297           0.00049       -0.40625       -0.34375        0.03125
 BRILLOUIN|   298           0.00049       -0.40625       -0.34375        0.09375
 BRILLOUIN|   299           0.00049       -0.40625       -0.34375        0.15625
 BRILLOUIN|   300           0.00049       -0.40625       -0.34375        0.21875
 BRILLOUIN|   301           0.00049       -0.40625       -0.34375        0.28125
 BRILLOUIN|   302           0.00049       -0.40625       -0.34375        0.34375
 BRILLOUIN|   303           0.00049       -0.40625       -0.34375        0.40625
 BRILLOUIN|   304           0.00049       -0.40625       -0.34375        0.46875
 BRILLOUIN|   305           0.00049       -0.40625       -0.28125       -0.46875
 BRILLOUIN|   306           0.00049       -0.40625       -0.28125       -0.40625
 BRILLOUIN|   307           0.00049       -0.40625       -0.28125       -0.34375
 BRILLOUIN|   308           0.00049       -0.40625       -0.28125       -0.28125
 BRILLOUIN|   309           0.00049       -0.40625       -0.28125       -0.21875
 BRILLOUIN|   310           0.00049       -0.40625       -0.28125       -0.15625
 BRILLOUIN|   311           0.00049       -0.40625       -0.28125       -0.09375
 BRILLOUIN|   312           0.00049       -0.40625       -0.28125       -0.03125
 BRILLOUIN|   313           0.00049       -0.40625       -0.28125        0.03125
 BRILLOUIN|   314           0.00049       -0.40625       -0.28125        0.09375
 BRILLOUIN|   315           0.00049       -0.40625       -0.28125        0.15625
 BRILLOUIN|   316           0.00049       -0.40625       -0.28125        0.21875
 BRILLOUIN|   317           0.00049       -0.40625       -0.28125        0.28125
 BRILLOUIN|   318           0.00049       -0.40625       -0.28125        0.34375
 BRILLOUIN|   319           0.00049       -0.40625       -0.28125        0.40625
 BRILLOUIN|   320           0.00049       -0.40625       -0.28125        0.46875
 BRILLOUIN|   321           0.00049       -0.40625       -0.21875       -0.46875
 BRILLOUIN|   322           0.00049       -0.40625       -0.21875       -0.40625
 BRILLOUIN|   323           0.00049       -0.40625       -0.21875       -0.34375
 BRILLOUIN|   324           0.00049       -0.40625       -0.21875       -0.28125
 BRILLOUIN|   325           0.00049       -0.40625       -0.21875       -0.21875
 BRILLOUIN|   326           0.00049       -0.40625       -0.21875       -0.15625
 BRILLOUIN|   327           0.00049       -0.40625       -0.21875       -0.09375
 BRILLOUIN|   328           0.00049       -0.40625       -0.21875       -0.03125
 BRILLOUIN|   329           0.00049       -0.40625       -0.21875        0.03125
 BRILLOUIN|   330           0.00049       -0.40625       -0.21875        0.09375
 BRILLOUIN|   331           0.00049       -0.40625       -0.21875        0.15625
 BRILLOUIN|   332           0.00049       -0.40625       -0.21875        0.21875
 BRILLOUIN|   333           0.00049       -0.40625       -0.21875        0.28125
 BRILLOUIN|   334           0.00049       -0.40625       -0.21875        0.34375
 BRILLOUIN|   335           0.00049       -0.40625       -0.21875        0.40625
 BRILLOUIN|   336           0.00049       -0.40625       -0.21875        0.46875
 BRILLOUIN|   337           0.00049       -0.40625       -0.15625       -0.46875
 BRILLOUIN|   338           0.00049       -0.40625       -0.15625       -0.40625
 BRILLOUIN|   339           0.00049       -0.40625       -0.15625       -0.34375
 BRILLOUIN|   340           0.00049       -0.40625       -0.15625       -0.28125
 BRILLOUIN|   341           0.00049       -0.40625       -0.15625       -0.21875
 BRILLOUIN|   342           0.00049       -0.40625       -0.15625       -0.15625
 BRILLOUIN|   343           0.00049       -0.40625       -0.15625       -0.09375
 BRILLOUIN|   344           0.00049       -0.40625       -0.15625       -0.03125
 BRILLOUIN|   345           0.00049       -0.40625       -0.15625        0.03125
 BRILLOUIN|   346           0.00049       -0.40625       -0.15625        0.09375
 BRILLOUIN|   347           0.00049       -0.40625       -0.15625        0.15625
 BRILLOUIN|   348           0.00049       -0.40625       -0.15625        0.21875
 BRILLOUIN|   349           0.00049       -0.40625       -0.15625        0.28125
 BRILLOUIN|   350           0.00049       -0.40625       -0.15625        0.34375
 BRILLOUIN|   351           0.00049       -0.40625       -0.15625        0.40625
 BRILLOUIN|   352           0.00049       -0.40625       -0.15625        0.46875
 BRILLOUIN|   353           0.00049       -0.40625       -0.09375       -0.46875
 BRILLOUIN|   354           0.00049       -0.40625       -0.09375       -0.40625
 BRILLOUIN|   355           0.00049       -0.40625       -0.09375       -0.34375
 BRILLOUIN|   356           0.00049       -0.40625       -0.09375       -0.28125
 BRILLOUIN|   357           0.00049       -0.40625       -0.09375       -0.21875
 BRILLOUIN|   358           0.00049       -0.40625       -0.09375       -0.15625
 BRILLOUIN|   359           0.00049       -0.40625       -0.09375       -0.09375
 BRILLOUIN|   360           0.00049       -0.40625       -0.09375       -0.03125
 BRILLOUIN|   361           0.00049       -0.40625       -0.09375        0.03125
 BRILLOUIN|   362           0.00049       -0.40625       -0.09375        0.09375
 BRILLOUIN|   363           0.00049       -0.40625       -0.09375        0.15625
 BRILLOUIN|   364           0.00049       -0.40625       -0.09375        0.21875
 BRILLOUIN|   365           0.00049       -0.40625       -0.09375        0.28125
 BRILLOUIN|   366           0.00049       -0.40625       -0.09375        0.34375
 BRILLOUIN|   367           0.00049       -0.40625       -0.09375        0.40625
 BRILLOUIN|   368           0.00049       -0.40625       -0.09375        0.46875
 BRILLOUIN|   369           0.00049       -0.40625       -0.03125       -0.46875
 BRILLOUIN|   370           0.00049       -0.40625       -0.03125       -0.40625
 BRILLOUIN|   371           0.00049       -0.40625       -0.03125       -0.34375
 BRILLOUIN|   372           0.00049       -0.40625       -0.03125       -0.28125
 BRILLOUIN|   373           0.00049       -0.40625       -0.03125       -0.21875
 BRILLOUIN|   374           0.00049       -0.40625       -0.03125       -0.15625
 BRILLOUIN|   375           0.00049       -0.40625       -0.03125       -0.09375
 BRILLOUIN|   376           0.00049       -0.40625       -0.03125       -0.03125
 BRILLOUIN|   377           0.00049       -0.40625       -0.03125        0.03125
 BRILLOUIN|   378           0.00049       -0.40625       -0.03125        0.09375
 BRILLOUIN|   379           0.00049       -0.40625       -0.03125        0.15625
 BRILLOUIN|   380           0.00049       -0.40625       -0.03125        0.21875
 BRILLOUIN|   381           0.00049       -0.40625       -0.03125        0.28125
 BRILLOUIN|   382           0.00049       -0.40625       -0.03125        0.34375
 BRILLOUIN|   383           0.00049       -0.40625       -0.03125        0.40625
 BRILLOUIN|   384           0.00049       -0.40625       -0.03125        0.46875
 BRILLOUIN|   385           0.00049       -0.40625        0.03125       -0.46875
 BRILLOUIN|   386           0.00049       -0.40625        0.03125       -0.40625
 BRILLOUIN|   387           0.00049       -0.40625        0.03125       -0.34375
 BRILLOUIN|   388           0.00049       -0.40625        0.03125       -0.28125
 BRILLOUIN|   389           0.00049       -0.40625        0.03125       -0.21875
 BRILLOUIN|   390           0.00049       -0.40625        0.03125       -0.15625
 BRILLOUIN|   391           0.00049       -0.40625        0.03125       -0.09375
 BRILLOUIN|   392           0.00049       -0.40625        0.03125       -0.03125
 BRILLOUIN|   393           0.00049       -0.40625        0.03125        0.03125
 BRILLOUIN|   394           0.00049       -0.40625        0.03125        0.09375
 BRILLOUIN|   395           0.00049       -0.40625        0.03125        0.15625
 BRILLOUIN|   396           0.00049       -0.40625        0.03125        0.21875
 BRILLOUIN|   397           0.00049       -0.40625        0.03125        0.28125
 BRILLOUIN|   398           0.00049       -0.40625        0.03125        0.34375
 BRILLOUIN|   399           0.00049       -0.40625        0.03125        0.40625
 BRILLOUIN|   400           0.00049       -0.40625        0.03125        0.46875
 BRILLOUIN|   401           0.00049       -0.40625        0.09375       -0.46875
 BRILLOUIN|   402           0.00049       -0.40625        0.09375       -0.40625
 BRILLOUIN|   403           0.00049       -0.40625        0.09375       -0.34375
 BRILLOUIN|   404           0.00049       -0.40625        0.09375       -0.28125
 BRILLOUIN|   405           0.00049       -0.40625        0.09375       -0.21875
 BRILLOUIN|   406           0.00049       -0.40625        0.09375       -0.15625
 BRILLOUIN|   407           0.00049       -0.40625        0.09375       -0.09375
 BRILLOUIN|   408           0.00049       -0.40625        0.09375       -0.03125
 BRILLOUIN|   409           0.00049       -0.40625        0.09375        0.03125
 BRILLOUIN|   410           0.00049       -0.40625        0.09375        0.09375
 BRILLOUIN|   411           0.00049       -0.40625        0.09375        0.15625
 BRILLOUIN|   412           0.00049       -0.40625        0.09375        0.21875
 BRILLOUIN|   413           0.00049       -0.40625        0.09375        0.28125
 BRILLOUIN|   414           0.00049       -0.40625        0.09375        0.34375
 BRILLOUIN|   415           0.00049       -0.40625        0.09375        0.40625
 BRILLOUIN|   416           0.00049       -0.40625        0.09375        0.46875
 BRILLOUIN|   417           0.00049       -0.40625        0.15625       -0.46875
 BRILLOUIN|   418           0.00049       -0.40625        0.15625       -0.40625
 BRILLOUIN|   419           0.00049       -0.40625        0.15625       -0.34375
 BRILLOUIN|   420           0.00049       -0.40625        0.15625       -0.28125
 BRILLOUIN|   421           0.00049       -0.40625        0.15625       -0.21875
 BRILLOUIN|   422           0.00049       -0.40625        0.15625       -0.15625
 BRILLOUIN|   423           0.00049       -0.40625        0.15625       -0.09375
 BRILLOUIN|   424           0.00049       -0.40625        0.15625       -0.03125
 BRILLOUIN|   425           0.00049       -0.40625        0.15625        0.03125
 BRILLOUIN|   426           0.00049       -0.40625        0.15625        0.09375
 BRILLOUIN|   427           0.00049       -0.40625        0.15625        0.15625
 BRILLOUIN|   428           0.00049       -0.40625        0.15625        0.21875
 BRILLOUIN|   429           0.00049       -0.40625        0.15625        0.28125
 BRILLOUIN|   430           0.00049       -0.40625        0.15625        0.34375
 BRILLOUIN|   431           0.00049       -0.40625        0.15625        0.40625
 BRILLOUIN|   432           0.00049       -0.40625        0.15625        0.46875
 BRILLOUIN|   433           0.00049       -0.40625        0.21875       -0.46875
 BRILLOUIN|   434           0.00049       -0.40625        0.21875       -0.40625
 BRILLOUIN|   435           0.00049       -0.40625        0.21875       -0.34375
 BRILLOUIN|   436           0.00049       -0.40625        0.21875       -0.28125
 BRILLOUIN|   437           0.00049       -0.40625        0.21875       -0.21875
 BRILLOUIN|   438           0.00049       -0.40625        0.21875       -0.15625
 BRILLOUIN|   439           0.00049       -0.40625        0.21875       -0.09375
 BRILLOUIN|   440           0.00049       -0.40625        0.21875       -0.03125
 BRILLOUIN|   441           0.00049       -0.40625        0.21875        0.03125
 BRILLOUIN|   442           0.00049       -0.40625        0.21875        0.09375
 BRILLOUIN|   443           0.00049       -0.40625        0.21875        0.15625
 BRILLOUIN|   444           0.00049       -0.40625        0.21875        0.21875
 BRILLOUIN|   445           0.00049       -0.40625        0.21875        0.28125
 BRILLOUIN|   446           0.00049       -0.40625        0.21875        0.34375
 BRILLOUIN|   447           0.00049       -0.40625        0.21875        0.40625
 BRILLOUIN|   448           0.00049       -0.40625        0.21875        0.46875
 BRILLOUIN|   449           0.00049       -0.40625        0.28125       -0.46875
 BRILLOUIN|   450           0.00049       -0.40625        0.28125       -0.40625
 BRILLOUIN|   451           0.00049       -0.40625        0.28125       -0.34375
 BRILLOUIN|   452           0.00049       -0.40625        0.28125       -0.28125
 BRILLOUIN|   453           0.00049       -0.40625        0.28125       -0.21875
 BRILLOUIN|   454           0.00049       -0.40625        0.28125       -0.15625
 BRILLOUIN|   455           0.00049       -0.40625        0.28125       -0.09375
 BRILLOUIN|   456           0.00049       -0.40625        0.28125       -0.03125
 BRILLOUIN|   457           0.00049       -0.40625        0.28125        0.03125
 BRILLOUIN|   458           0.00049       -0.40625        0.28125        0.09375
 BRILLOUIN|   459           0.00049       -0.40625        0.28125        0.15625
 BRILLOUIN|   460           0.00049       -0.40625        0.28125        0.21875
 BRILLOUIN|   461           0.00049       -0.40625        0.28125        0.28125
 BRILLOUIN|   462           0.00049       -0.40625        0.28125        0.34375
 BRILLOUIN|   463           0.00049       -0.40625        0.28125        0.40625
 BRILLOUIN|   464           0.00049       -0.40625        0.28125        0.46875
 BRILLOUIN|   465           0.00049       -0.40625        0.34375       -0.46875
 BRILLOUIN|   466           0.00049       -0.40625        0.34375       -0.40625
 BRILLOUIN|   467           0.00049       -0.40625        0.34375       -0.34375
 BRILLOUIN|   468           0.00049       -0.40625        0.34375       -0.28125
 BRILLOUIN|   469           0.00049       -0.40625        0.34375       -0.21875
 BRILLOUIN|   470           0.00049       -0.40625        0.34375       -0.15625
 BRILLOUIN|   471           0.00049       -0.40625        0.34375       -0.09375
 BRILLOUIN|   472           0.00049       -0.40625        0.34375       -0.03125
 BRILLOUIN|   473           0.00049       -0.40625        0.34375        0.03125
 BRILLOUIN|   474           0.00049       -0.40625        0.34375        0.09375
 BRILLOUIN|   475           0.00049       -0.40625        0.34375        0.15625
 BRILLOUIN|   476           0.00049       -0.40625        0.34375        0.21875
 BRILLOUIN|   477           0.00049       -0.40625        0.34375        0.28125
 BRILLOUIN|   478           0.00049       -0.40625        0.34375        0.34375
 BRILLOUIN|   479           0.00049       -0.40625        0.34375        0.40625
 BRILLOUIN|   480           0.00049       -0.40625        0.34375        0.46875
 BRILLOUIN|   481           0.00049       -0.40625        0.40625       -0.46875
 BRILLOUIN|   482           0.00049       -0.40625        0.40625       -0.40625
 BRILLOUIN|   483           0.00049       -0.40625        0.40625       -0.34375
 BRILLOUIN|   484           0.00049       -0.40625        0.40625       -0.28125
 BRILLOUIN|   485           0.00049       -0.40625        0.40625       -0.21875
 BRILLOUIN|   486           0.00049       -0.40625        0.40625       -0.15625
 BRILLOUIN|   487           0.00049       -0.40625        0.40625       -0.09375
 BRILLOUIN|   488           0.00049       -0.40625        0.40625       -0.03125
 BRILLOUIN|   489           0.00049       -0.40625        0.40625        0.03125
 BRILLOUIN|   490           0.00049       -0.40625        0.40625        0.09375
 BRILLOUIN|   491           0.00049       -0.40625        0.40625        0.15625
 BRILLOUIN|   492           0.00049       -0.40625        0.40625        0.21875
 BRILLOUIN|   493           0.00049       -0.40625        0.40625        0.28125
 BRILLOUIN|   494           0.00049       -0.40625        0.40625        0.34375
 BRILLOUIN|   495           0.00049       -0.40625        0.40625        0.40625
 BRILLOUIN|   496           0.00049       -0.40625        0.40625        0.46875
 BRILLOUIN|   497           0.00049       -0.40625        0.46875       -0.46875
 BRILLOUIN|   498           0.00049       -0.40625        0.46875       -0.40625
 BRILLOUIN|   499           0.00049       -0.40625        0.46875       -0.34375
 BRILLOUIN|   500           0.00049       -0.40625        0.46875       -0.28125
 BRILLOUIN|   501           0.00049       -0.40625        0.46875       -0.21875
 BRILLOUIN|   502           0.00049       -0.40625        0.46875       -0.15625
 BRILLOUIN|   503           0.00049       -0.40625        0.46875       -0.09375
 BRILLOUIN|   504           0.00049       -0.40625        0.46875       -0.03125
 BRILLOUIN|   505           0.00049       -0.40625        0.46875        0.03125
 BRILLOUIN|   506           0.00049       -0.40625        0.46875        0.09375
 BRILLOUIN|   507           0.00049       -0.40625        0.46875        0.15625
 BRILLOUIN|   508           0.00049       -0.40625        0.46875        0.21875
 BRILLOUIN|   509           0.00049       -0.40625        0.46875        0.28125
 BRILLOUIN|   510           0.00049       -0.40625        0.46875        0.34375
 BRILLOUIN|   511           0.00049       -0.40625        0.46875        0.40625
 BRILLOUIN|   512           0.00049       -0.40625        0.46875        0.46875
 BRILLOUIN|   513           0.00049       -0.34375       -0.46875       -0.46875
 BRILLOUIN|   514           0.00049       -0.34375       -0.46875       -0.40625
 BRILLOUIN|   515           0.00049       -0.34375       -0.46875       -0.34375
 BRILLOUIN|   516           0.00049       -0.34375       -0.46875       -0.28125
 BRILLOUIN|   517           0.00049       -0.34375       -0.46875       -0.21875
 BRILLOUIN|   518           0.00049       -0.34375       -0.46875       -0.15625
 BRILLOUIN|   519           0.00049       -0.34375       -0.46875       -0.09375
 BRILLOUIN|   520           0.00049       -0.34375       -0.46875       -0.03125
 BRILLOUIN|   521           0.00049       -0.34375       -0.46875        0.03125
 BRILLOUIN|   522           0.00049       -0.34375       -0.46875        0.09375
 BRILLOUIN|   523           0.00049       -0.34375       -0.46875        0.15625
 BRILLOUIN|   524           0.00049       -0.34375       -0.46875        0.21875
 BRILLOUIN|   525           0.00049       -0.34375       -0.46875        0.28125
 BRILLOUIN|   526           0.00049       -0.34375       -0.46875        0.34375
 BRILLOUIN|   527           0.00049       -0.34375       -0.46875        0.40625
 BRILLOUIN|   528           0.00049       -0.34375       -0.46875        0.46875
 BRILLOUIN|   529           0.00049       -0.34375       -0.40625       -0.46875
 BRILLOUIN|   530           0.00049       -0.34375       -0.40625       -0.40625
 BRILLOUIN|   531           0.00049       -0.34375       -0.40625       -0.34375
 BRILLOUIN|   532           0.00049       -0.34375       -0.40625       -0.28125
 BRILLOUIN|   533           0.00049       -0.34375       -0.40625       -0.21875
 BRILLOUIN|   534           0.00049       -0.34375       -0.40625       -0.15625
 BRILLOUIN|   535           0.00049       -0.34375       -0.40625       -0.09375
 BRILLOUIN|   536           0.00049       -0.34375       -0.40625       -0.03125
 BRILLOUIN|   537           0.00049       -0.34375       -0.40625        0.03125
 BRILLOUIN|   538           0.00049       -0.34375       -0.40625        0.09375
 BRILLOUIN|   539           0.00049       -0.34375       -0.40625        0.15625
 BRILLOUIN|   540           0.00049       -0.34375       -0.40625        0.21875
 BRILLOUIN|   541           0.00049       -0.34375       -0.40625        0.28125
 BRILLOUIN|   542           0.00049       -0.34375       -0.40625        0.34375
 BRILLOUIN|   543           0.00049       -0.34375       -0.40625        0.40625
 BRILLOUIN|   544           0.00049       -0.34375       -0.40625        0.46875
 BRILLOUIN|   545           0.00049       -0.34375       -0.34375       -0.46875
 BRILLOUIN|   546           0.00049       -0.34375       -0.34375       -0.40625
 BRILLOUIN|   547           0.00049       -0.34375       -0.34375       -0.34375
 BRILLOUIN|   548           0.00049       -0.34375       -0.34375       -0.28125
 BRILLOUIN|   549           0.00049       -0.34375       -0.34375       -0.21875
 BRILLOUIN|   550           0.00049       -0.34375       -0.34375       -0.15625
 BRILLOUIN|   551           0.00049       -0.34375       -0.34375       -0.09375
 BRILLOUIN|   552           0.00049       -0.34375       -0.34375       -0.03125
 BRILLOUIN|   553           0.00049       -0.34375       -0.34375        0.03125
 BRILLOUIN|   554           0.00049       -0.34375       -0.34375        0.09375
 BRILLOUIN|   555           0.00049       -0.34375       -0.34375        0.15625
 BRILLOUIN|   556           0.00049       -0.34375       -0.34375        0.21875
 BRILLOUIN|   557           0.00049       -0.34375       -0.34375        0.28125
 BRILLOUIN|   558           0.00049       -0.34375       -0.34375        0.34375
 BRILLOUIN|   559           0.00049       -0.34375       -0.34375        0.40625
 BRILLOUIN|   560           0.00049       -0.34375       -0.34375        0.46875
 BRILLOUIN|   561           0.00049       -0.34375       -0.28125       -0.46875
 BRILLOUIN|   562           0.00049       -0.34375       -0.28125       -0.40625
 BRILLOUIN|   563           0.00049       -0.34375       -0.28125       -0.34375
 BRILLOUIN|   564           0.00049       -0.34375       -0.28125       -0.28125
 BRILLOUIN|   565           0.00049       -0.34375       -0.28125       -0.21875
 BRILLOUIN|   566           0.00049       -0.34375       -0.28125       -0.15625
 BRILLOUIN|   567           0.00049       -0.34375       -0.28125       -0.09375
 BRILLOUIN|   568           0.00049       -0.34375       -0.28125       -0.03125
 BRILLOUIN|   569           0.00049       -0.34375       -0.28125        0.03125
 BRILLOUIN|   570           0.00049       -0.34375       -0.28125        0.09375
 BRILLOUIN|   571           0.00049       -0.34375       -0.28125        0.15625
 BRILLOUIN|   572           0.00049       -0.34375       -0.28125        0.21875
 BRILLOUIN|   573           0.00049       -0.34375       -0.28125        0.28125
 BRILLOUIN|   574           0.00049       -0.34375       -0.28125        0.34375
 BRILLOUIN|   575           0.00049       -0.34375       -0.28125        0.40625
 BRILLOUIN|   576           0.00049       -0.34375       -0.28125        0.46875
 BRILLOUIN|   577           0.00049       -0.34375       -0.21875       -0.46875
 BRILLOUIN|   578           0.00049       -0.34375       -0.21875       -0.40625
 BRILLOUIN|   579           0.00049       -0.34375       -0.21875       -0.34375
 BRILLOUIN|   580           0.00049       -0.34375       -0.21875       -0.28125
 BRILLOUIN|   581           0.00049       -0.34375       -0.21875       -0.21875
 BRILLOUIN|   582           0.00049       -0.34375       -0.21875       -0.15625
 BRILLOUIN|   583           0.00049       -0.34375       -0.21875       -0.09375
 BRILLOUIN|   584           0.00049       -0.34375       -0.21875       -0.03125
 BRILLOUIN|   585           0.00049       -0.34375       -0.21875        0.03125
 BRILLOUIN|   586           0.00049       -0.34375       -0.21875        0.09375
 BRILLOUIN|   587           0.00049       -0.34375       -0.21875        0.15625
 BRILLOUIN|   588           0.00049       -0.34375       -0.21875        0.21875
 BRILLOUIN|   589           0.00049       -0.34375       -0.21875        0.28125
 BRILLOUIN|   590           0.00049       -0.34375       -0.21875        0.34375
 BRILLOUIN|   591           0.00049       -0.34375       -0.21875        0.40625
 BRILLOUIN|   592           0.00049       -0.34375       -0.21875        0.46875
 BRILLOUIN|   593           0.00049       -0.34375       -0.15625       -0.46875
 BRILLOUIN|   594           0.00049       -0.34375       -0.15625       -0.40625
 BRILLOUIN|   595           0.00049       -0.34375       -0.15625       -0.34375
 BRILLOUIN|   596           0.00049       -0.34375       -0.15625       -0.28125
 BRILLOUIN|   597           0.00049       -0.34375       -0.15625       -0.21875
 BRILLOUIN|   598           0.00049       -0.34375       -0.15625       -0.15625
 BRILLOUIN|   599           0.00049       -0.34375       -0.15625       -0.09375
 BRILLOUIN|   600           0.00049       -0.34375       -0.15625       -0.03125
 BRILLOUIN|   601           0.00049       -0.34375       -0.15625        0.03125
 BRILLOUIN|   602           0.00049       -0.34375       -0.15625        0.09375
 BRILLOUIN|   603           0.00049       -0.34375       -0.15625        0.15625
 BRILLOUIN|   604           0.00049       -0.34375       -0.15625        0.21875
 BRILLOUIN|   605           0.00049       -0.34375       -0.15625        0.28125
 BRILLOUIN|   606           0.00049       -0.34375       -0.15625        0.34375
 BRILLOUIN|   607           0.00049       -0.34375       -0.15625        0.40625
 BRILLOUIN|   608           0.00049       -0.34375       -0.15625        0.46875
 BRILLOUIN|   609           0.00049       -0.34375       -0.09375       -0.46875
 BRILLOUIN|   610           0.00049       -0.34375       -0.09375       -0.40625
 BRILLOUIN|   611           0.00049       -0.34375       -0.09375       -0.34375
 BRILLOUIN|   612           0.00049       -0.34375       -0.09375       -0.28125
 BRILLOUIN|   613           0.00049       -0.34375       -0.09375       -0.21875
 BRILLOUIN|   614           0.00049       -0.34375       -0.09375       -0.15625
 BRILLOUIN|   615           0.00049       -0.34375       -0.09375       -0.09375
 BRILLOUIN|   616           0.00049       -0.34375       -0.09375       -0.03125
 BRILLOUIN|   617           0.00049       -0.34375       -0.09375        0.03125
 BRILLOUIN|   618           0.00049       -0.34375       -0.09375        0.09375
 BRILLOUIN|   619           0.00049       -0.34375       -0.09375        0.15625
 BRILLOUIN|   620           0.00049       -0.34375       -0.09375        0.21875
 BRILLOUIN|   621           0.00049       -0.34375       -0.09375        0.28125
 BRILLOUIN|   622           0.00049       -0.34375       -0.09375        0.34375
 BRILLOUIN|   623           0.00049       -0.34375       -0.09375        0.40625
 BRILLOUIN|   624           0.00049       -0.34375       -0.09375        0.46875
 BRILLOUIN|   625           0.00049       -0.34375       -0.03125       -0.46875
 BRILLOUIN|   626           0.00049       -0.34375       -0.03125       -0.40625
 BRILLOUIN|   627           0.00049       -0.34375       -0.03125       -0.34375
 BRILLOUIN|   628           0.00049       -0.34375       -0.03125       -0.28125
 BRILLOUIN|   629           0.00049       -0.34375       -0.03125       -0.21875
 BRILLOUIN|   630           0.00049       -0.34375       -0.03125       -0.15625
 BRILLOUIN|   631           0.00049       -0.34375       -0.03125       -0.09375
 BRILLOUIN|   632           0.00049       -0.34375       -0.03125       -0.03125
 BRILLOUIN|   633           0.00049       -0.34375       -0.03125        0.03125
 BRILLOUIN|   634           0.00049       -0.34375       -0.03125        0.09375
 BRILLOUIN|   635           0.00049       -0.34375       -0.03125        0.15625
 BRILLOUIN|   636           0.00049       -0.34375       -0.03125        0.21875
 BRILLOUIN|   637           0.00049       -0.34375       -0.03125        0.28125
 BRILLOUIN|   638           0.00049       -0.34375       -0.03125        0.34375
 BRILLOUIN|   639           0.00049       -0.34375       -0.03125        0.40625
 BRILLOUIN|   640           0.00049       -0.34375       -0.03125        0.46875
 BRILLOUIN|   641           0.00049       -0.34375        0.03125       -0.46875
 BRILLOUIN|   642           0.00049       -0.34375        0.03125       -0.40625
 BRILLOUIN|   643           0.00049       -0.34375        0.03125       -0.34375
 BRILLOUIN|   644           0.00049       -0.34375        0.03125       -0.28125
 BRILLOUIN|   645           0.00049       -0.34375        0.03125       -0.21875
 BRILLOUIN|   646           0.00049       -0.34375        0.03125       -0.15625
 BRILLOUIN|   647           0.00049       -0.34375        0.03125       -0.09375
 BRILLOUIN|   648           0.00049       -0.34375        0.03125       -0.03125
 BRILLOUIN|   649           0.00049       -0.34375        0.03125        0.03125
 BRILLOUIN|   650           0.00049       -0.34375        0.03125        0.09375
 BRILLOUIN|   651           0.00049       -0.34375        0.03125        0.15625
 BRILLOUIN|   652           0.00049       -0.34375        0.03125        0.21875
 BRILLOUIN|   653           0.00049       -0.34375        0.03125        0.28125
 BRILLOUIN|   654           0.00049       -0.34375        0.03125        0.34375
 BRILLOUIN|   655           0.00049       -0.34375        0.03125        0.40625
 BRILLOUIN|   656           0.00049       -0.34375        0.03125        0.46875
 BRILLOUIN|   657           0.00049       -0.34375        0.09375       -0.46875
 BRILLOUIN|   658           0.00049       -0.34375        0.09375       -0.40625
 BRILLOUIN|   659           0.00049       -0.34375        0.09375       -0.34375
 BRILLOUIN|   660           0.00049       -0.34375        0.09375       -0.28125
 BRILLOUIN|   661           0.00049       -0.34375        0.09375       -0.21875
 BRILLOUIN|   662           0.00049       -0.34375        0.09375       -0.15625
 BRILLOUIN|   663           0.00049       -0.34375        0.09375       -0.09375
 BRILLOUIN|   664           0.00049       -0.34375        0.09375       -0.03125
 BRILLOUIN|   665           0.00049       -0.34375        0.09375        0.03125
 BRILLOUIN|   666           0.00049       -0.34375        0.09375        0.09375
 BRILLOUIN|   667           0.00049       -0.34375        0.09375        0.15625
 BRILLOUIN|   668           0.00049       -0.34375        0.09375        0.21875
 BRILLOUIN|   669           0.00049       -0.34375        0.09375        0.28125
 BRILLOUIN|   670           0.00049       -0.34375        0.09375        0.34375
 BRILLOUIN|   671           0.00049       -0.34375        0.09375        0.40625
 BRILLOUIN|   672           0.00049       -0.34375        0.09375        0.46875
 BRILLOUIN|   673           0.00049       -0.34375        0.15625       -0.46875
 BRILLOUIN|   674           0.00049       -0.34375        0.15625       -0.40625
 BRILLOUIN|   675           0.00049       -0.34375        0.15625       -0.34375
 BRILLOUIN|   676           0.00049       -0.34375        0.15625       -0.28125
 BRILLOUIN|   677           0.00049       -0.34375        0.15625       -0.21875
 BRILLOUIN|   678           0.00049       -0.34375        0.15625       -0.15625
 BRILLOUIN|   679           0.00049       -0.34375        0.15625       -0.09375
 BRILLOUIN|   680           0.00049       -0.34375        0.15625       -0.03125
 BRILLOUIN|   681           0.00049       -0.34375        0.15625        0.03125
 BRILLOUIN|   682           0.00049       -0.34375        0.15625        0.09375
 BRILLOUIN|   683           0.00049       -0.34375        0.15625        0.15625
 BRILLOUIN|   684           0.00049       -0.34375        0.15625        0.21875
 BRILLOUIN|   685           0.00049       -0.34375        0.15625        0.28125
 BRILLOUIN|   686           0.00049       -0.34375        0.15625        0.34375
 BRILLOUIN|   687           0.00049       -0.34375        0.15625        0.40625
 BRILLOUIN|   688           0.00049       -0.34375        0.15625        0.46875
 BRILLOUIN|   689           0.00049       -0.34375        0.21875       -0.46875
 BRILLOUIN|   690           0.00049       -0.34375        0.21875       -0.40625
 BRILLOUIN|   691           0.00049       -0.34375        0.21875       -0.34375
 BRILLOUIN|   692           0.00049       -0.34375        0.21875       -0.28125
 BRILLOUIN|   693           0.00049       -0.34375        0.21875       -0.21875
 BRILLOUIN|   694           0.00049       -0.34375        0.21875       -0.15625
 BRILLOUIN|   695           0.00049       -0.34375        0.21875       -0.09375
 BRILLOUIN|   696           0.00049       -0.34375        0.21875       -0.03125
 BRILLOUIN|   697           0.00049       -0.34375        0.21875        0.03125
 BRILLOUIN|   698           0.00049       -0.34375        0.21875        0.09375
 BRILLOUIN|   699           0.00049       -0.34375        0.21875        0.15625
 BRILLOUIN|   700           0.00049       -0.34375        0.21875        0.21875
 BRILLOUIN|   701           0.00049       -0.34375        0.21875        0.28125
 BRILLOUIN|   702           0.00049       -0.34375        0.21875        0.34375
 BRILLOUIN|   703           0.00049       -0.34375        0.21875        0.40625
 BRILLOUIN|   704           0.00049       -0.34375        0.21875        0.46875
 BRILLOUIN|   705           0.00049       -0.34375        0.28125       -0.46875
 BRILLOUIN|   706           0.00049       -0.34375        0.28125       -0.40625
 BRILLOUIN|   707           0.00049       -0.34375        0.28125       -0.34375
 BRILLOUIN|   708           0.00049       -0.34375        0.28125       -0.28125
 BRILLOUIN|   709           0.00049       -0.34375        0.28125       -0.21875
 BRILLOUIN|   710           0.00049       -0.34375        0.28125       -0.15625
 BRILLOUIN|   711           0.00049       -0.34375        0.28125       -0.09375
 BRILLOUIN|   712           0.00049       -0.34375        0.28125       -0.03125
 BRILLOUIN|   713           0.00049       -0.34375        0.28125        0.03125
 BRILLOUIN|   714           0.00049       -0.34375        0.28125        0.09375
 BRILLOUIN|   715           0.00049       -0.34375        0.28125        0.15625
 BRILLOUIN|   716           0.00049       -0.34375        0.28125        0.21875
 BRILLOUIN|   717           0.00049       -0.34375        0.28125        0.28125
 BRILLOUIN|   718           0.00049       -0.34375        0.28125        0.34375
 BRILLOUIN|   719           0.00049       -0.34375        0.28125        0.40625
 BRILLOUIN|   720           0.00049       -0.34375        0.28125        0.46875
 BRILLOUIN|   721           0.00049       -0.34375        0.34375       -0.46875
 BRILLOUIN|   722           0.00049       -0.34375        0.34375       -0.40625
 BRILLOUIN|   723           0.00049       -0.34375        0.34375       -0.34375
 BRILLOUIN|   724           0.00049       -0.34375        0.34375       -0.28125
 BRILLOUIN|   725           0.00049       -0.34375        0.34375       -0.21875
 BRILLOUIN|   726           0.00049       -0.34375        0.34375       -0.15625
 BRILLOUIN|   727           0.00049       -0.34375        0.34375       -0.09375
 BRILLOUIN|   728           0.00049       -0.34375        0.34375       -0.03125
 BRILLOUIN|   729           0.00049       -0.34375        0.34375        0.03125
 BRILLOUIN|   730           0.00049       -0.34375        0.34375        0.09375
 BRILLOUIN|   731           0.00049       -0.34375        0.34375        0.15625
 BRILLOUIN|   732           0.00049       -0.34375        0.34375        0.21875
 BRILLOUIN|   733           0.00049       -0.34375        0.34375        0.28125
 BRILLOUIN|   734           0.00049       -0.34375        0.34375        0.34375
 BRILLOUIN|   735           0.00049       -0.34375        0.34375        0.40625
 BRILLOUIN|   736           0.00049       -0.34375        0.34375        0.46875
 BRILLOUIN|   737           0.00049       -0.34375        0.40625       -0.46875
 BRILLOUIN|   738           0.00049       -0.34375        0.40625       -0.40625
 BRILLOUIN|   739           0.00049       -0.34375        0.40625       -0.34375
 BRILLOUIN|   740           0.00049       -0.34375        0.40625       -0.28125
 BRILLOUIN|   741           0.00049       -0.34375        0.40625       -0.21875
 BRILLOUIN|   742           0.00049       -0.34375        0.40625       -0.15625
 BRILLOUIN|   743           0.00049       -0.34375        0.40625       -0.09375
 BRILLOUIN|   744           0.00049       -0.34375        0.40625       -0.03125
 BRILLOUIN|   745           0.00049       -0.34375        0.40625        0.03125
 BRILLOUIN|   746           0.00049       -0.34375        0.40625        0.09375
 BRILLOUIN|   747           0.00049       -0.34375        0.40625        0.15625
 BRILLOUIN|   748           0.00049       -0.34375        0.40625        0.21875
 BRILLOUIN|   749           0.00049       -0.34375        0.40625        0.28125
 BRILLOUIN|   750           0.00049       -0.34375        0.40625        0.34375
 BRILLOUIN|   751           0.00049       -0.34375        0.40625        0.40625
 BRILLOUIN|   752           0.00049       -0.34375        0.40625        0.46875
 BRILLOUIN|   753           0.00049       -0.34375        0.46875       -0.46875
 BRILLOUIN|   754           0.00049       -0.34375        0.46875       -0.40625
 BRILLOUIN|   755           0.00049       -0.34375        0.46875       -0.34375
 BRILLOUIN|   756           0.00049       -0.34375        0.46875       -0.28125
 BRILLOUIN|   757           0.00049       -0.34375        0.46875       -0.21875
 BRILLOUIN|   758           0.00049       -0.34375        0.46875       -0.15625
 BRILLOUIN|   759           0.00049       -0.34375        0.46875       -0.09375
 BRILLOUIN|   760           0.00049       -0.34375        0.46875       -0.03125
 BRILLOUIN|   761           0.00049       -0.34375        0.46875        0.03125
 BRILLOUIN|   762           0.00049       -0.34375        0.46875        0.09375
 BRILLOUIN|   763           0.00049       -0.34375        0.46875        0.15625
 BRILLOUIN|   764           0.00049       -0.34375        0.46875        0.21875
 BRILLOUIN|   765           0.00049       -0.34375        0.46875        0.28125
 BRILLOUIN|   766           0.00049       -0.34375        0.46875        0.34375
 BRILLOUIN|   767           0.00049       -0.34375        0.46875        0.40625
 BRILLOUIN|   768           0.00049       -0.34375        0.46875        0.46875
 BRILLOUIN|   769           0.00049       -0.28125       -0.46875       -0.46875
 BRILLOUIN|   770           0.00049       -0.28125       -0.46875       -0.40625
 BRILLOUIN|   771           0.00049       -0.28125       -0.46875       -0.34375
 BRILLOUIN|   772           0.00049       -0.28125       -0.46875       -0.28125
 BRILLOUIN|   773           0.00049       -0.28125       -0.46875       -0.21875
 BRILLOUIN|   774           0.00049       -0.28125       -0.46875       -0.15625
 BRILLOUIN|   775           0.00049       -0.28125       -0.46875       -0.09375
 BRILLOUIN|   776           0.00049       -0.28125       -0.46875       -0.03125
 BRILLOUIN|   777           0.00049       -0.28125       -0.46875        0.03125
 BRILLOUIN|   778           0.00049       -0.28125       -0.46875        0.09375
 BRILLOUIN|   779           0.00049       -0.28125       -0.46875        0.15625
 BRILLOUIN|   780           0.00049       -0.28125       -0.46875        0.21875
 BRILLOUIN|   781           0.00049       -0.28125       -0.46875        0.28125
 BRILLOUIN|   782           0.00049       -0.28125       -0.46875        0.34375
 BRILLOUIN|   783           0.00049       -0.28125       -0.46875        0.40625
 BRILLOUIN|   784           0.00049       -0.28125       -0.46875        0.46875
 BRILLOUIN|   785           0.00049       -0.28125       -0.40625       -0.46875
 BRILLOUIN|   786           0.00049       -0.28125       -0.40625       -0.40625
 BRILLOUIN|   787           0.00049       -0.28125       -0.40625       -0.34375
 BRILLOUIN|   788           0.00049       -0.28125       -0.40625       -0.28125
 BRILLOUIN|   789           0.00049       -0.28125       -0.40625       -0.21875
 BRILLOUIN|   790           0.00049       -0.28125       -0.40625       -0.15625
 BRILLOUIN|   791           0.00049       -0.28125       -0.40625       -0.09375
 BRILLOUIN|   792           0.00049       -0.28125       -0.40625       -0.03125
 BRILLOUIN|   793           0.00049       -0.28125       -0.40625        0.03125
 BRILLOUIN|   794           0.00049       -0.28125       -0.40625        0.09375
 BRILLOUIN|   795           0.00049       -0.28125       -0.40625        0.15625
 BRILLOUIN|   796           0.00049       -0.28125       -0.40625        0.21875
 BRILLOUIN|   797           0.00049       -0.28125       -0.40625        0.28125
 BRILLOUIN|   798           0.00049       -0.28125       -0.40625        0.34375
 BRILLOUIN|   799           0.00049       -0.28125       -0.40625        0.40625
 BRILLOUIN|   800           0.00049       -0.28125       -0.40625        0.46875
 BRILLOUIN|   801           0.00049       -0.28125       -0.34375       -0.46875
 BRILLOUIN|   802           0.00049       -0.28125       -0.34375       -0.40625
 BRILLOUIN|   803           0.00049       -0.28125       -0.34375       -0.34375
 BRILLOUIN|   804           0.00049       -0.28125       -0.34375       -0.28125
 BRILLOUIN|   805           0.00049       -0.28125       -0.34375       -0.21875
 BRILLOUIN|   806           0.00049       -0.28125       -0.34375       -0.15625
 BRILLOUIN|   807           0.00049       -0.28125       -0.34375       -0.09375
 BRILLOUIN|   808           0.00049       -0.28125       -0.34375       -0.03125
 BRILLOUIN|   809           0.00049       -0.28125       -0.34375        0.03125
 BRILLOUIN|   810           0.00049       -0.28125       -0.34375        0.09375
 BRILLOUIN|   811           0.00049       -0.28125       -0.34375        0.15625
 BRILLOUIN|   812           0.00049       -0.28125       -0.34375        0.21875
 BRILLOUIN|   813           0.00049       -0.28125       -0.34375        0.28125
 BRILLOUIN|   814           0.00049       -0.28125       -0.34375        0.34375
 BRILLOUIN|   815           0.00049       -0.28125       -0.34375        0.40625
 BRILLOUIN|   816           0.00049       -0.28125       -0.34375        0.46875
 BRILLOUIN|   817           0.00049       -0.28125       -0.28125       -0.46875
 BRILLOUIN|   818           0.00049       -0.28125       -0.28125       -0.40625
 BRILLOUIN|   819           0.00049       -0.28125       -0.28125       -0.34375
 BRILLOUIN|   820           0.00049       -0.28125       -0.28125       -0.28125
 BRILLOUIN|   821           0.00049       -0.28125       -0.28125       -0.21875
 BRILLOUIN|   822           0.00049       -0.28125       -0.28125       -0.15625
 BRILLOUIN|   823           0.00049       -0.28125       -0.28125       -0.09375
 BRILLOUIN|   824           0.00049       -0.28125       -0.28125       -0.03125
 BRILLOUIN|   825           0.00049       -0.28125       -0.28125        0.03125
 BRILLOUIN|   826           0.00049       -0.28125       -0.28125        0.09375
 BRILLOUIN|   827           0.00049       -0.28125       -0.28125        0.15625
 BRILLOUIN|   828           0.00049       -0.28125       -0.28125        0.21875
 BRILLOUIN|   829           0.00049       -0.28125       -0.28125        0.28125
 BRILLOUIN|   830           0.00049       -0.28125       -0.28125        0.34375
 BRILLOUIN|   831           0.00049       -0.28125       -0.28125        0.40625
 BRILLOUIN|   832           0.00049       -0.28125       -0.28125        0.46875
 BRILLOUIN|   833           0.00049       -0.28125       -0.21875       -0.46875
 BRILLOUIN|   834           0.00049       -0.28125       -0.21875       -0.40625
 BRILLOUIN|   835           0.00049       -0.28125       -0.21875       -0.34375
 BRILLOUIN|   836           0.00049       -0.28125       -0.21875       -0.28125
 BRILLOUIN|   837           0.00049       -0.28125       -0.21875       -0.21875
 BRILLOUIN|   838           0.00049       -0.28125       -0.21875       -0.15625
 BRILLOUIN|   839           0.00049       -0.28125       -0.21875       -0.09375
 BRILLOUIN|   840           0.00049       -0.28125       -0.21875       -0.03125
 BRILLOUIN|   841           0.00049       -0.28125       -0.21875        0.03125
 BRILLOUIN|   842           0.00049       -0.28125       -0.21875        0.09375
 BRILLOUIN|   843           0.00049       -0.28125       -0.21875        0.15625
 BRILLOUIN|   844           0.00049       -0.28125       -0.21875        0.21875
[...]
 -                                                                             -
 -------------------------------------------------------------------------------
 
 CP2K version 2025.1 (Development Version), the CP2K developers group (2025).
 CP2K is freely available from https://www.cp2k.org/ .
 
 M. Graml, K. Zollner, D. Hernangmez-Prez, P. E. Faria Junior, J. Wilhelm.
 J. Chem. Theory Comput. 20, 2202-2208 (2024).
 Low-scaling GW algorithm applied to twisted transition-metal dichalcogenide 
 heterobilayers.
 https://doi.org/10.1021/acs.jctc.3c01230

 T. D. Kuehne, M. Iannuzzi, M. Del Ben, V. V. Rybkin, P. Seewald, F. Stein, T. 
 Laino, R. Z. Khaliullin, O. Schuett, F. Schiffmann, D. Golze, J. Wilhelm, S. 
 Chulkov, M. H. Bani-Hashemian, V. Weber, U. Borstnik, M. Taillefumier, A. S. 
 Jakobovits, A. Lazzaro, H. Pabst, T. Mueller, R. Schade, M. Guidon, S. 
 Andermatt, N. Holmberg, G. K. Schenter, A. Hehn, A. Bussy, F. Belleflamme, G. 
 Tabacchi, A. Gloess, M. Lass, I. Bethune, C. J. Mundy, C. Plessl, M. Watkins, 
 J. VandeVondele, M. Krack, J. Hutter.
 J. Chem. Phys. 152, 194103 (2020).
 CP2K: An electronic structure and molecular dynamics software package - 
 Quickstep: Efficient and accurate electronic structure calculations.
 https://doi.org/10.1063/5.0007045

 A. Togo, I. Tanaka.
 arXiv, 1808.01590 (2018).
 Spglib : a software library for crystal symmetry search.

 O. Schuett, P. Messmer, J. Hutter, J. VandeVondele.
 Electronic Structure Calculations on Graphics Processing Units, 173-190 (2016).
 GPU-Accelerated Sparse Matrix-Matrix Multiplication for Linear Scaling Density 
 Functional Theory.
 https://doi.org/10.1002/9781118670712.ch8

 A. Heinecke, G. Henry, M. Hutchinson, H. Pabst.
 Proceedings of Intl. Supercomputing Conference, 981-991 (2016).
 LIBXSMM: Accelerating Small Matrix Multiplications by Runtime Code Generation.
 https://doi.org/10.1109/SC.2016.83

 J. Hutter, M. Iannuzzi, F. Schiffmann, J. VandeVondele.
 WIREs Comput Mol Sci. 4, 15-25 (2014).
 CP2K: atomistic simulations of condensed matter systems.
 https://doi.org/10.1002/wcms.1159

 U. Borstnik, J. VandeVondele, V. Weber, J. Hutter.
 Parallel Comput. 40, 47-58 (2014).
 Sparse matrix multiplication: The distributed block-compressed sparse row 
 library.
 https://doi.org/10.1016/j.parco.2014.03.012

 A. Marek, V. Blum, R. Johanni, V. Havu, B. Lang, T. Auckenthaler, A. Heinecke, 
 H. Bungartz, H. Lederer.
 J. Phys. Condens. Matter 26, 213201 (2014).
 The ELPA library: scalable parallel eigenvalue solutions for electronic 
 structure theory and computational science.
 https://doi.org/10.1088/0953-8984/26/21/213201

 J. VandeVondele, J. Hutter.
 J. Chem. Phys. 127, 114105 (2007).
 Gaussian basis sets for accurate calculations on molecular systems in gas and 
 condensed phases.
 https://doi.org/10.1063/1.2770708

 M. Krack.
 Theor. Chem. Acc. 114, 145-152 (2005).
 Pseudopotentials for H to Kr optimized for gradient-corrected 
 exchange-correlation functionals.
 https://doi.org/10.1007/s00214-005-0655-y

 M. Frigo, S. G. Johnson.
 Proc. IEEE 93, 216-231 (2005).
 The design and implementation of FFTW3.
 https://doi.org/10.1109/JPROC.2004.840301

 M. Krack, M. Parrinello.
 Phys. Chem. Chem. Phys. 2, 2105-2112 (2000).
 All-electron ab-initio molecular dynamics.
 https://doi.org/10.1039/b001167n

 G. Lippert, J. Hutter, M. Parrinello.
 Theor. Chem. Acc. 103, 124-140 (1999).
 The Gaussian and augmented-plane-wave density functional method for ab initio 
 molecular dynamics simulations.
 https://doi.org/10.1007/s002140050523

 C. Hartwigsen, S. Goedecker, J. Hutter.
 Phys. Rev. B 58, 3641-3662 (1998).
 Relativistic separable dual-space Gaussian pseudopotentials from H to Rn.
 https://doi.org/10.1103/PhysRevB.58.3641

 S. Goedecker, M. Teter, J. Hutter.
 Phys. Rev. B 54, 1703-1710 (1996).
 Separable dual-space Gaussian pseudopotentials.
 https://doi.org/10.1103/PhysRevB.54.1703

 J. P. Perdew, K. Burke, M. Ernzerhof.
 Phys. Rev. Lett. 77, 3865-3868 (1996).
 Generalized gradient approximation made simple.
 https://doi.org/10.1103/PhysRevLett.77.3865


 -------------------------------------------------------------------------------
 -                                                                             -
 -                                T I M I N G                                  -
 -                                                                             -
 -------------------------------------------------------------------------------
 SUBROUTINE                       CALLS  ASD         SELF TIME        TOTAL TIME
                                MAXIMUM       AVERAGE  MAXIMUM  AVERAGE  MAXIMUM
 CP2K                                 1  1.0     0.01     0.02 34936.50 34936.68
 qs_energies                          1  2.0     0.00     0.00 34930.25 34930.43
 qs_energies_properties               1  3.0     0.00     0.00 34451.28 34451.45
 post_scf_bandstructure               1  4.0     0.00     0.00 34451.28 34451.45
 gw                                   1  5.0     0.00     0.00 34178.86 34179.03
 gw_calc_small_cell_full_kp           1  6.0     0.00     0.10 33953.90 33954.07
 dbt_total                      ******* -5.7   368.29   388.44 24054.31 24703.20
 dbt_contract                   ******* 10.7   373.08   383.20 19094.24 19724.32
 dbt_tas_multiply               ******* 13.0    29.84    31.79 17578.13 18169.64
 dbt_tas_total                  ******* 14.0  1704.97  1759.75 17559.72 18150.54
 compute_Sigma_c                      1  7.0     0.00     0.01 17202.58 17202.77
 compute_chi                          1  7.0     0.20     0.63 13961.43 13962.35
 contract_to_Sigma                  671  8.0  1886.33  2052.27 13499.17 13950.23
 contract_M_occ_vir_to_chi          305  8.0  3271.48  3550.32  8687.15  9248.58
 dbt_tas_estimate_result_nze    ******* 13.5   536.52   563.98  8670.43  8973.48
 contract_to_Sigma_3c_x_G       *******  9.0    78.01    86.42  6765.76  6924.31
 contract_W                         366  8.0   107.35   111.41  5431.90  5574.94
 dbt_copy                       ******* 11.1   387.30   411.88  4685.09  4992.43
 contract_to_Sigma_contract       99231  9.0   143.41   151.09  4586.98  4788.56
 G_times_3c                       90210  8.0   100.03   113.22  4334.99  4488.93
 dbt_tas_dbm                    ******* 15.0    27.83    29.37  4223.12  4391.39
 dbm_multiply                   ******* 17.0  4161.03  4327.41  4161.03  4327.41
 reshape_mm_small               ******* 15.0  2122.73  2263.91  3953.88  4123.90
 get_t_3c_int                   *******  9.7   462.44   495.23  3261.91  3489.24
 dbt_reshape                    ******* 12.0  2164.13  2333.38  2892.64  3118.89
 compute_Sigma_x                      1  7.0     0.00     0.00  2504.33  2504.87
 mp_sync                        ******* -1.1  1296.72  2261.48  1296.72  2261.48
 dbt_tas_create_split           ******* 16.1    57.35    61.24  2123.43  2212.13
 dbt_tas_create_split_rows_or_c ******* 17.1   220.64   232.27  2066.08  2152.67
 reshape_mm_compatible          ******* 15.0   299.61   314.69  1931.27  2006.45
 dbt_tas_mm_2                   ******* 16.1    14.11    15.23  1765.21  1859.28
 dbt_tas_mm_3T                  ******* 16.2     8.23     8.77  1548.11  1600.01
 dbt_tas_distribution_new       ******* 15.9   762.55   792.82  1466.01  1529.31
 add_R                          *******  0.5   766.34   797.05  1490.29  1524.53
 change_split                   ******* 15.5    93.76    97.89  1339.00  1397.22
 dbt_tas_reshape                ******* 15.4   233.30   248.48  1229.66  1292.20
 dbt_tas_replicate              ******* 15.0   501.25   528.37  1160.47  1204.19
 is_cell_in_index_to_cell       ******* ****  1108.00  1151.40  1108.00  1151.40
 mp_cart_create                 ******* -9.5   931.82   970.15  1026.92  1068.87
 dbt_tas_reserve_blocks_index   ******* -4.3   160.55   168.18   931.60   961.44
 convert_to_new_pgrid           ******* 15.0   482.71   518.65   895.75   957.13
 dbm_reserve_blocks             ******* -0.6   901.37   937.09   901.37   937.09
 dbt_tas_mm_1N                  7855790 15.5     4.19     4.64   877.48   920.92
 dbt_tas_copy                   ******* 12.7   378.52   434.34   694.46   784.87
 dbt_tas_create_new             ******* 15.3   714.08   775.14   714.08   775.14
 mp_comm_dup                    ******* 18.6   612.01   642.54   657.07   687.58
 dbt_permute_index              ******* 12.2   516.60   552.40   589.18   629.85
 dbt_tas_reserve_blocks_templat ******* 14.0   242.75   271.25   581.96   623.90
 dbt_remap                      2337054 11.0   215.74   245.98   563.36   589.30
 dbt_reserve_blocks_index_array ******* 13.0    56.23    61.07   530.90   569.31
 dbt_reserve_blocks_index       ******* 14.0    69.90    76.13   480.37   516.59
 mp_comm_split_direct           ******* 18.1   439.11   460.23   470.96   493.79
 scf_env_do_scf                       1  3.0     0.00     0.00   478.68   478.69
 scf_env_do_scf_inner_loop           31  4.0     0.01     0.01   478.68   478.69
 qs_scf_new_mos_kp                   31  5.0     0.00     0.00   471.62   471.64
 do_general_diag_kp                  31  6.0     0.61     0.65   471.62   471.64
 mp_comm_free                   *******  3.7   432.99   452.38   432.99   452.38
 dbm_copy                       ******* 16.0   413.04   442.34   413.04   442.34
 dbt_tas_merge                  ******* 15.1   314.09   339.35   408.07   435.09
 dbt_tas_reshape_buffer_obtain  ******* 16.4   208.99   221.86   398.31   413.56
 parallel_gemm_cfm               228476  8.6     0.13     0.15   393.76   402.24
 parallel_gemm_cfm_cosma         228476  9.6   393.64   402.12   393.64   402.12
 dbt_tas_reshape_buffer_fill    ******* 16.4   366.76   388.43   366.76   388.43
 mp_alltoall_i22                1306490  9.5   355.53   378.29   355.53   378.29
 G_occ_vir                           21  8.0     0.18     0.21   347.91   351.91
 dbt_copy_nocomm                ******* 11.0   148.70   168.86   281.50   315.04
 dbt_align_index                ******* 11.5    50.41    52.49   289.86   302.37
 dbm_filter                     ******* 14.8   268.53   286.27   268.53   286.27
 dbcsr_complete_redistribute     610565  9.1    10.93    26.54   274.40   281.46
 dbcsr_desymmetrize_deep         695925  8.0     5.35     6.16   259.63   268.14
 reshape_mm_template            4674108 15.5   150.10   161.23   239.54   252.44
 dbt_tas_mp_comm                ******* 13.2    27.56    29.10   233.09   244.26
 copy_dbcsr_to_fm                391693  7.6     2.16     2.32   227.92   233.07
 dbt_communicate_buffer         ******* 13.0   205.73   227.25   205.73   227.25
 dbm_scale                      ******* 12.6   213.32   226.46   213.32   226.46
 create_and_init_bs_env_for_gw        1  6.0     0.00     0.00   224.96   224.99
 dbt_destroy                    ******* 11.4   185.55   195.33   196.55   206.56
 compute_QP_energies                  1  7.0     0.03     0.52   205.56   206.14
 trafo_to_k_and_nn                46090  8.0     0.14     0.18   205.34   205.65
 mp_cart_get                    ******* -1.2   181.77   197.11   181.77   197.11
 dbm_add                        ******* 15.0   181.44   194.76   181.44   194.76
 mp_comm_size                   ******* -1.5   174.29   185.43   174.29   185.43
 dos_pdos_ldos                        1  5.0     0.01     0.01   178.17   178.19
 dbt_distribution_new_expert    4856368 12.5    26.59    27.72   151.19   156.42
 SOC_ev                            8380  6.0     0.05     0.06   154.37   154.55
 rskp_transform                  152116  7.2     1.75   149.74     1.75   149.74
 dbt_reserve_blocks_template    ******* 12.0    42.97    50.81   132.80   149.22
 setup_parallelization_Delta_R        1  7.0     0.00     0.00   147.88   147.88
 compute_n_tensor_ops_Delta_R         1  8.0    36.62    49.21   147.85   147.85
 dbt_tas_reshape_get_coord      ******* 16.4   134.91   147.26   134.91   147.26
 copy_fm_to_dbcsr                218872  8.8     0.62     0.67   123.90   139.22
 mp_comm_rank                   ******* -1.5   130.64   138.40   130.64   138.40
 fm_add_ikp_to_rs                 86016  9.0    87.16    89.96   126.40   129.96
 kpoint_density_transform            31  7.0     0.22     0.25   120.65   120.68
 cp_cfm_heevd                     17256  7.5     0.01     0.01    98.16    98.63
 cp_cfm_heevd_base                17256  8.5    98.14    98.62    98.14    98.62
 mp_alltoall_i                  ******* -3.6    89.79    97.87    89.79    97.87
 fm_to_local_tensor               91125  9.0     1.14     1.25    97.16    97.17
 dbt_create_template            *******  8.9    89.46    96.72    89.46    96.72
 dbt_create_3c_R1_R2                 12  8.0     9.83    10.74    90.09    96.59
 dbt_create_new                 2428184 12.0    16.91    18.11    86.63    90.49
 compute_W_real_space                 1  7.0     0.04     0.44    79.99    80.55
 fm_trafo_rs_to_ikp               46090  9.0    47.65    50.41    70.07    73.68
 rsmat_to_kp                      25140  7.2     0.19     0.20    66.62    67.08
 mp_sum_iv                         8404  9.0    38.69    65.28    38.69    65.28
 compute_Minv_and_Vsqrt               1  8.0     0.00     0.00    62.19    62.65
 transform_dmat                   63488  8.0     0.72    62.15     0.72    62.15
 create_and_init_bs_env               1  5.0     0.00     0.00    61.58    61.58
 compute_cfm_mo_coeff_kp_and_ei       1  6.0     0.01     0.01    61.57    61.57
 build_2c_coulomb_matrix_kp_sma       2  9.0     0.37     0.49    58.95    59.40
 mp_max_i                       ******* -4.2    54.49    58.32    54.49    58.32
 cp_fm_start_copy_general        380928  7.3     1.60     2.87    55.77    57.16
 destroy_t_2d                        12  8.0    13.04    14.54    50.53    56.12
 mp_sum_l                       ******* -7.4    49.34    53.54    49.34    53.54
 global_matrix_to_local_matrix    91125 10.0     0.79     1.30    48.55    53.22
 local_dbt_to_global_fm              16  8.0     0.10     0.11    52.41    52.41
 mp_cart_sub                     783415  9.6    51.57    51.70    51.57    51.70
 mp_allgather_i                  761856  8.3    45.19    49.40    45.19    49.40
 compute_3c_integrals                 1  7.0     0.90     0.96    47.64    47.65
 dbt_tas_reshape_communicate_bu ******* 16.4    24.58    25.68    44.22    46.34
 dbt_tas_reshape_alltoall       ******* 16.4    23.07    24.92    40.13    42.86
 add_ikp_to_rs                  ******* -4.6    40.52    42.40    40.52    42.40
 dbcsr_finalize                 2050490 10.2     6.55     7.02    38.19    40.54
 build_3c_integrals                   1  8.0    26.05    26.90    37.53    38.54
 cp_cfm_geeig_canon                4190  7.0     0.02     0.02    36.75    36.87
 dbt_pgrid_create_expert        4856371 13.5     5.68     6.07    34.95    36.33
 dbt_tas_communicate_buffer     ******* 17.2    31.43    33.88    31.43    33.88
 mp_bcast_i                     ******* 18.1    27.34    32.73    27.34    32.73
 soc                                  1  5.0     0.00     0.00    32.67    32.67
 H_KS_spinor_kp                       1  6.0     0.03     0.03    32.57    32.57
 build_2c_coulomb_matrix_kp_sma  294912 10.0    27.69    28.81    27.69    28.81
 mp_sum_i                       ******* 16.0    27.72    28.75    27.72    28.75
 add_rs_to_ikp                  ******* 10.0    25.24    27.81    25.24    27.81
 mp_waitall_1                   1913301  9.9    22.10    27.34    22.10    27.34
 mp_alltoall_d11v               3919470 10.0    11.87    26.80    11.87    26.80
 send_data                        91125 11.0     0.06     0.06    20.32    25.37
 communicate_buffer               91125 12.0     0.42     7.50    20.26    25.31
 local_dbt_to_global_mat          54000  9.0     0.34     0.37    18.47    24.57
 dbt_nd_mp_comm                 2428179 12.0     3.56     3.82    23.40    24.53
 mp_dims_create                 ******* 14.5    20.75    23.83    20.75    23.83
 compute_proj_mo_on_kind           4190  6.0     0.05     0.06    22.85    22.99
 dbcsr_merge_all                 747340 11.3    12.43    14.03    19.95    22.24
 trafo_V_xc_R_to_kp                   1  7.0     0.02     0.02    22.17    22.17
 get_V_tr_R                           9  8.9     0.07     0.15    21.58    21.92
 mp_alltoall_i11v               2527620  9.8    18.44    21.79    18.44    21.79
 dbt_tas_replicate_communicate_ ******* 15.9    11.68    12.86    19.74    21.27
 send_sizes_1                     91125 11.0     0.05     0.06    19.65    20.11
 dbt_tas_replicate_alltoall     ******* 15.9    10.44    11.62    17.65    19.65
 fm_MWM_R_t_to_local_tensor_W_R       5  8.0     0.01     0.02    17.88    17.88
 add_V_L                         294912 10.0     1.05    17.02     1.05    17.02
 dbt_tas_merge_alltoall         ******* 16.1     9.12    10.02    15.90    16.94
 dbt_distribution_destroy       4856368 12.5    11.35    12.45    14.26    15.29
 mp_sum_dm                       294942 10.0    12.85    15.08    12.85    15.08
 local_matrix_to_global_matrix    54000 10.0     0.10     0.10     8.13    14.94
 dbcsr_filter_anytype            439506 10.8     1.54     1.68    13.32    14.84
 mp_cart_rank                   ******* 15.9    12.87    14.76    12.87    14.76
 dbt_buffer_get_index           ******* 16.8    13.33    14.55    13.33    14.55
 dbt_tas_merge_communicate_buff ******* 16.1     9.69    10.56    13.41    14.34
 mult_W_with_Minv                     5  8.0     0.01     0.01    12.88    12.89
 mp_sum_dv                        71328  8.5    10.16    11.99    10.16    11.99
 dbt_create_matrix                91125 10.0     0.52     0.53     9.67    10.07
 dbcsr_work_create              1443265  9.7     5.91     6.53     9.11     9.70
 dbcsr_iterator_start           4508016 10.2     8.25     8.46     9.02     9.32
 dbcsr_work_destroy_all         1443265 10.7     5.44     5.91     8.41     8.98
 get_Minv_Vtr_Minv_R                  1  8.0     0.00     0.01     8.61     8.96
 dbcsr_create_new               2158716  9.2     6.31     6.66     7.45     7.90
 mp_bcast_iv                    1523766  8.3     6.74     7.60     6.74     7.60
 dbcsr_data_release             ******* 11.5     5.39     7.10     5.39     7.10
 copy_fm_to_dbcsr_bc             218872  9.8     1.87     2.05     6.30     6.72
 alloc_block_3c                       1  9.0     1.17     1.20     6.28     6.68
 set_blocks                       54000 11.0     0.66     1.70     4.31     6.61
 tree_to_linear_d                611740 12.1     5.67     6.49     5.67     6.49
 copy_dbcsr_to_fm_bc             391693  8.6     2.46     2.63     6.00     6.25
 dbcsr_destroy                  2052288  9.0     2.35     4.29     4.81     6.05
 get_data                         91125 11.0     1.53     5.87     1.66     6.03
 bs_env_release                       1  2.0     0.95     2.81     5.13     5.94
 dbcsr_iterator_stop            4508016 10.2     4.38     4.61     4.95     5.23
 dbcsr_data_new                 ******* 10.9     4.68     4.86     4.68     4.86
 comm_data                        54000 11.0     0.12     1.81     0.26     4.44
 trafo_rs_to_ikp                   1392  8.4     1.45     1.53     4.27     4.35
 send_sizes_2                     91125 11.0     0.05     0.06     3.27     3.80
 -------------------------------------------------------------------------------

 The number of warnings for this run is : 0
 
 -------------------------------------------------------------------------------
  **** **** ******  **  PROGRAM ENDED AT                 2025-02-18 05:05:42.188
 ***** ** ***  *** **   PROGRAM RAN ON                    n2lcn0101.ab2021.local
 **    ****   ******    PROGRAM RAN BY                                  metdyn02
 ***** **    ** ** **   PROGRAM PROCESS ID                               1258181
  **** **  *******  **  PROGRAM STOPPED IN /scratch/hpc-prf-metdyn/metdyn02_Remi
                                           /08_3D/06_AlAs
