SIRIUS 7.5.2, git hash: https://api.github.com/repos/electronic-structure/SIRIUS/git/ref/tags/v7.5.2
 DBCSR| CPU Multiplication driver                                           XSMM (U)
 DBCSR| Multrec recursion limit                                              512 (U)
 DBCSR| Multiplication stack size                                           1000 (D)
 DBCSR| Maximum elements for images                                    UNLIMITED (U)
 DBCSR| Multiplicative factor virtual images                                   1 (U)
 DBCSR| Use multiplication densification                                       T (D)
 DBCSR| Multiplication size stacks                                             3 (U)
 DBCSR| Use memory pool for CPU allocation                                     F (U)
 DBCSR| Number of 3D layers                                               SINGLE (U)
 DBCSR| Use MPI memory allocation                                              F (U)
 DBCSR| Use RMA algorithm                                                      F (U)
 DBCSR| Use Communication thread                                               T (U)
 DBCSR| Communication thread load                                             30 (D)
 DBCSR| MPI: My process id                                                     0
 DBCSR| MPI: Number of processes                                             128
 DBCSR| OMP: Current number of threads                                        16
 DBCSR| OMP: Max number of threads                                            16
 DBCSR| Split modifier for TAS multiplication algorithm                  1.0E+00 (U)


  **** **** ******  **  PROGRAM STARTED AT               2025-02-18 00:22:09.747
 ***** ** ***  *** **   PROGRAM STARTED ON                n2lcn0103.ab2021.local
 **    ****   ******    PROGRAM STARTED BY                              metdyn02
 ***** **    ** ** **   PROGRAM PROCESS ID                               1395350
  **** **  *******  **  PROGRAM STARTED IN /scratch/hpc-prf-metdyn/metdyn02_Remi
                                           /08_3D/08_GaP

 CP2K| version string:                 CP2K version 2025.1 (Development Version)
 CP2K| source code revision number:                                  git:a2ea924
 CP2K| cp2kflags: omp libint fftw3 libxc libgrpp elpa parallel scalapack mpi_f08
 CP2K|             cosma xsmm plumed2 spglib sirius libvori libbqb libvdwxc hdf5
 CP2K| is freely available from                            https://www.cp2k.org/
 CP2K| Program compiled at                          Sat Feb  1 00:09:14 CET 2025
 CP2K| Program compiled on                                              n2login1
 CP2K| Program compiled for                                                local
 CP2K| Data directory path    /opt/software/pc2/EB-SW/software/CP2K/2024.1-foss-
 CP2K| Input file name                                                    GW.inp

 GLOBAL| Force Environment number                                              1
 GLOBAL| Basis set file name            /scratch/hpc-prf-metdyn/metdyn02_Remi/BA
 GLOBAL| Potential file name            /pc2/groups/hpc-prf-metdyn/metdyn02_Remi
 GLOBAL| MM Potential file name                                     MM_POTENTIAL
 GLOBAL| Coordinate file name                                      __STD_INPUT__
 GLOBAL| Method name                                                        CP2K
 GLOBAL| Project name                                                        GaP
 GLOBAL| Run type                                                         ENERGY
 GLOBAL| FFT library                                                       FFTW3
 GLOBAL| Diagonalization library                                            ELPA
 GLOBAL| DGEMM library                                                      BLAS
 GLOBAL| Minimum number of eigenvectors for ELPA usage                        16
 GLOBAL| Orthonormality check for eigenvectors                          DISABLED
 GLOBAL| Matrix multiplication library                                     COSMA
 GLOBAL| All-to-all communication in single precision                          F
 GLOBAL| FFTs using library dependent lengths                                  F
 GLOBAL| Grid backend                                                       AUTO
 GLOBAL| Global print level                                               MEDIUM
 GLOBAL| MPI I/O enabled                                                       T
 GLOBAL| Total number of message passing processes                           128
 GLOBAL| Number of threads for this process                                   16
 GLOBAL| This output is from process                                           0
 GLOBAL| OpenMP stack size per thread (OMP_STACKSIZE)                    default
 GLOBAL| CPU model name                          AMD EPYC 7763 64-Core Processor
 GLOBAL| CPUID                                                              1002

 MEMORY| system memory details [Kb]
 MEMORY|                        rank 0           min           max       average
 MEMORY| MemTotal           1056622248    1056622244    1056622248    1056622247
 MEMORY| MemFree            1040959024    1040959024    1044608368    1043535159
 MEMORY| Buffers                105344         29900        292200        173872
 MEMORY| Cached                8265056       4657080       8265056       5752869
 MEMORY| Slab                  1954864       1690616       2097936       1891312
 MEMORY| SReclaimable           355776        251144        392244        300482
 MEMORY| MemLikelyFree      1049685200    1049565052    1050317872    1049762383


 *** Fundamental physical constants (SI units) ***

 *** Literature: B. J. Mohr and B. N. Taylor,
 ***             CODATA recommended values of the fundamental physical
 ***             constants: 2006, Web Version 5.1
 ***             http://physics.nist.gov/constants

 Speed of light in vacuum [m/s]                             2.99792458000000E+08
 Magnetic constant or permeability of vacuum [N/A**2]       1.25663706143592E-06
 Electric constant or permittivity of vacuum [F/m]          8.85418781762039E-12
 Planck constant (h) [J*s]                                  6.62606896000000E-34
 Planck constant (h-bar) [J*s]                              1.05457162825177E-34
 Elementary charge [C]                                      1.60217648700000E-19
 Electron mass [kg]                                         9.10938215000000E-31
 Electron g factor [ ]                                     -2.00231930436220E+00
 Proton mass [kg]                                           1.67262163700000E-27
 Fine-structure constant                                    7.29735253760000E-03
 Rydberg constant [1/m]                                     1.09737315685270E+07
 Avogadro constant [1/mol]                                  6.02214179000000E+23
 Boltzmann constant [J/K]                                   1.38065040000000E-23
 Atomic mass unit [kg]                                      1.66053878200000E-27
 Bohr radius [m]                                            5.29177208590000E-11

 *** Conversion factors ***

 [u] -> [a.u.]                                              1.82288848426455E+03
 [Angstrom] -> [Bohr] = [a.u.]                              1.88972613288564E+00
 [a.u.] = [Bohr] -> [Angstrom]                              5.29177208590000E-01
 [a.u.] -> [s]                                              2.41888432650478E-17
 [a.u.] -> [fs]                                             2.41888432650478E-02
 [a.u.] -> [J]                                              4.35974393937059E-18
 [a.u.] -> [N]                                              8.23872205491840E-08
 [a.u.] -> [K]                                              3.15774647902944E+05
 [a.u.] -> [kJ/mol]                                         2.62549961709828E+03
 [a.u.] -> [kcal/mol]                                       6.27509468713739E+02
 [a.u.] -> [Pa]                                             2.94210107994716E+13
 [a.u.] -> [bar]                                            2.94210107994716E+08
 [a.u.] -> [atm]                                            2.90362800883016E+08
 [a.u.] -> [eV]                                             2.72113838565563E+01
 [a.u.] -> [Hz]                                             6.57968392072181E+15
 [a.u.] -> [1/cm] (wave numbers)                            2.19474631370540E+05
 [a.u./Bohr**2] -> [1/cm]                                   5.14048714338585E+03
 

 CELL_TOP| Volume [angstrom^3]:                                        40.469656
 CELL_TOP| Vector a [angstrom     2.725     0.000     2.725   |a| =     3.853732
 CELL_TOP| Vector b [angstrom     2.725     2.725     0.000   |b| =     3.853732
 CELL_TOP| Vector c [angstrom     0.000     2.725     2.725   |c| =     3.853732
 CELL_TOP| Angle (b,c), alpha [degree]:                                60.000000
 CELL_TOP| Angle (a,c), beta  [degree]:                                60.000000
 CELL_TOP| Angle (a,b), gamma [degree]:                                60.000000
 CELL_TOP| Numerically orthorhombic:                                          NO
 CELL_TOP| Periodicity                                                       XYZ

 GENERATE|  Preliminary Number of Bonds generated:                             0
 GENERATE|  Achieved consistency in connectivity generation.

 CELL| Volume [angstrom^3]:                                            40.469656
 CELL| Vector a [angstrom]:       2.725     0.000     2.725   |a| =     3.853732
 CELL| Vector b [angstrom]:       2.725     2.725     0.000   |b| =     3.853732
 CELL| Vector c [angstrom]:       0.000     2.725     2.725   |c| =     3.853732
 CELL| Angle (b,c), alpha [degree]:                                    60.000000
 CELL| Angle (a,c), beta  [degree]:                                    60.000000
 CELL| Angle (a,b), gamma [degree]:                                    60.000000
 CELL| Numerically orthorhombic:                                              NO
 CELL| Periodicity                                                           XYZ

 CELL_REF| Volume [angstrom^3]:                                        40.469656
 CELL_REF| Vector a [angstrom     2.725     0.000     2.725   |a| =     3.853732
 CELL_REF| Vector b [angstrom     2.725     2.725     0.000   |b| =     3.853732
 CELL_REF| Vector c [angstrom     0.000     2.725     2.725   |c| =     3.853732
 CELL_REF| Angle (b,c), alpha [degree]:                                60.000000
 CELL_REF| Angle (a,c), beta  [degree]:                                60.000000
 CELL_REF| Angle (a,b), gamma [degree]:                                60.000000
 CELL_REF| Numerically orthorhombic:                                          NO
 CELL_REF| Periodicity                                                       XYZ

 *******************************************************************************
                                    Kpoints
 *******************************************************************************
 BRILLOUIN| K-point scheme                                        Monkhorst-Pack
 BRILLOUIN| K-Point grid                                            16   16   16
 BRILLOUIN| Accuracy in Symmetry determination                      0.100000E-05
 BRILLOUIN| K-Point point group symmetrization                               OFF
 BRILLOUIN| Wavefunction type                                            COMPLEX
 BRILLOUIN| List of Kpoints [2 Pi/Bohr]                                     2048
 BRILLOUIN| Number           Weight            X              Y              Z
 BRILLOUIN|     1           0.00049       -0.46875       -0.46875       -0.46875
 BRILLOUIN|     2           0.00049       -0.46875       -0.46875       -0.40625
 BRILLOUIN|     3           0.00049       -0.46875       -0.46875       -0.34375
 BRILLOUIN|     4           0.00049       -0.46875       -0.46875       -0.28125
 BRILLOUIN|     5           0.00049       -0.46875       -0.46875       -0.21875
 BRILLOUIN|     6           0.00049       -0.46875       -0.46875       -0.15625
 BRILLOUIN|     7           0.00049       -0.46875       -0.46875       -0.09375
 BRILLOUIN|     8           0.00049       -0.46875       -0.46875       -0.03125
 BRILLOUIN|     9           0.00049       -0.46875       -0.46875        0.03125
 BRILLOUIN|    10           0.00049       -0.46875       -0.46875        0.09375
 BRILLOUIN|    11           0.00049       -0.46875       -0.46875        0.15625
 BRILLOUIN|    12           0.00049       -0.46875       -0.46875        0.21875
 BRILLOUIN|    13           0.00049       -0.46875       -0.46875        0.28125
 BRILLOUIN|    14           0.00049       -0.46875       -0.46875        0.34375
 BRILLOUIN|    15           0.00049       -0.46875       -0.46875        0.40625
 BRILLOUIN|    16           0.00049       -0.46875       -0.46875        0.46875
 BRILLOUIN|    17           0.00049       -0.46875       -0.40625       -0.46875
 BRILLOUIN|    18           0.00049       -0.46875       -0.40625       -0.40625
 BRILLOUIN|    19           0.00049       -0.46875       -0.40625       -0.34375
 BRILLOUIN|    20           0.00049       -0.46875       -0.40625       -0.28125
 BRILLOUIN|    21           0.00049       -0.46875       -0.40625       -0.21875
 BRILLOUIN|    22           0.00049       -0.46875       -0.40625       -0.15625
 BRILLOUIN|    23           0.00049       -0.46875       -0.40625       -0.09375
 BRILLOUIN|    24           0.00049       -0.46875       -0.40625       -0.03125
 BRILLOUIN|    25           0.00049       -0.46875       -0.40625        0.03125
 BRILLOUIN|    26           0.00049       -0.46875       -0.40625        0.09375
 BRILLOUIN|    27           0.00049       -0.46875       -0.40625        0.15625
 BRILLOUIN|    28           0.00049       -0.46875       -0.40625        0.21875
 BRILLOUIN|    29           0.00049       -0.46875       -0.40625        0.28125
 BRILLOUIN|    30           0.00049       -0.46875       -0.40625        0.34375
 BRILLOUIN|    31           0.00049       -0.46875       -0.40625        0.40625
 BRILLOUIN|    32           0.00049       -0.46875       -0.40625        0.46875
 BRILLOUIN|    33           0.00049       -0.46875       -0.34375       -0.46875
 BRILLOUIN|    34           0.00049       -0.46875       -0.34375       -0.40625
 BRILLOUIN|    35           0.00049       -0.46875       -0.34375       -0.34375
 BRILLOUIN|    36           0.00049       -0.46875       -0.34375       -0.28125
 BRILLOUIN|    37           0.00049       -0.46875       -0.34375       -0.21875
 BRILLOUIN|    38           0.00049       -0.46875       -0.34375       -0.15625
 BRILLOUIN|    39           0.00049       -0.46875       -0.34375       -0.09375
 BRILLOUIN|    40           0.00049       -0.46875       -0.34375       -0.03125
 BRILLOUIN|    41           0.00049       -0.46875       -0.34375        0.03125
 BRILLOUIN|    42           0.00049       -0.46875       -0.34375        0.09375
 BRILLOUIN|    43           0.00049       -0.46875       -0.34375        0.15625
 BRILLOUIN|    44           0.00049       -0.46875       -0.34375        0.21875
 BRILLOUIN|    45           0.00049       -0.46875       -0.34375        0.28125
 BRILLOUIN|    46           0.00049       -0.46875       -0.34375        0.34375
 BRILLOUIN|    47           0.00049       -0.46875       -0.34375        0.40625
 BRILLOUIN|    48           0.00049       -0.46875       -0.34375        0.46875
 BRILLOUIN|    49           0.00049       -0.46875       -0.28125       -0.46875
 BRILLOUIN|    50           0.00049       -0.46875       -0.28125       -0.40625
 BRILLOUIN|    51           0.00049       -0.46875       -0.28125       -0.34375
 BRILLOUIN|    52           0.00049       -0.46875       -0.28125       -0.28125
 BRILLOUIN|    53           0.00049       -0.46875       -0.28125       -0.21875
 BRILLOUIN|    54           0.00049       -0.46875       -0.28125       -0.15625
 BRILLOUIN|    55           0.00049       -0.46875       -0.28125       -0.09375
 BRILLOUIN|    56           0.00049       -0.46875       -0.28125       -0.03125
 BRILLOUIN|    57           0.00049       -0.46875       -0.28125        0.03125
 BRILLOUIN|    58           0.00049       -0.46875       -0.28125        0.09375
 BRILLOUIN|    59           0.00049       -0.46875       -0.28125        0.15625
 BRILLOUIN|    60           0.00049       -0.46875       -0.28125        0.21875
 BRILLOUIN|    61           0.00049       -0.46875       -0.28125        0.28125
 BRILLOUIN|    62           0.00049       -0.46875       -0.28125        0.34375
 BRILLOUIN|    63           0.00049       -0.46875       -0.28125        0.40625
 BRILLOUIN|    64           0.00049       -0.46875       -0.28125        0.46875
 BRILLOUIN|    65           0.00049       -0.46875       -0.21875       -0.46875
 BRILLOUIN|    66           0.00049       -0.46875       -0.21875       -0.40625
 BRILLOUIN|    67           0.00049       -0.46875       -0.21875       -0.34375
 BRILLOUIN|    68           0.00049       -0.46875       -0.21875       -0.28125
 BRILLOUIN|    69           0.00049       -0.46875       -0.21875       -0.21875
 BRILLOUIN|    70           0.00049       -0.46875       -0.21875       -0.15625
 BRILLOUIN|    71           0.00049       -0.46875       -0.21875       -0.09375
 BRILLOUIN|    72           0.00049       -0.46875       -0.21875       -0.03125
 BRILLOUIN|    73           0.00049       -0.46875       -0.21875        0.03125
 BRILLOUIN|    74           0.00049       -0.46875       -0.21875        0.09375
 BRILLOUIN|    75           0.00049       -0.46875       -0.21875        0.15625
 BRILLOUIN|    76           0.00049       -0.46875       -0.21875        0.21875
 BRILLOUIN|    77           0.00049       -0.46875       -0.21875        0.28125
 BRILLOUIN|    78           0.00049       -0.46875       -0.21875        0.34375
 BRILLOUIN|    79           0.00049       -0.46875       -0.21875        0.40625
 BRILLOUIN|    80           0.00049       -0.46875       -0.21875        0.46875
 BRILLOUIN|    81           0.00049       -0.46875       -0.15625       -0.46875
 BRILLOUIN|    82           0.00049       -0.46875       -0.15625       -0.40625
 BRILLOUIN|    83           0.00049       -0.46875       -0.15625       -0.34375
 BRILLOUIN|    84           0.00049       -0.46875       -0.15625       -0.28125
 BRILLOUIN|    85           0.00049       -0.46875       -0.15625       -0.21875
 BRILLOUIN|    86           0.00049       -0.46875       -0.15625       -0.15625
 BRILLOUIN|    87           0.00049       -0.46875       -0.15625       -0.09375
 BRILLOUIN|    88           0.00049       -0.46875       -0.15625       -0.03125
 BRILLOUIN|    89           0.00049       -0.46875       -0.15625        0.03125
 BRILLOUIN|    90           0.00049       -0.46875       -0.15625        0.09375
 BRILLOUIN|    91           0.00049       -0.46875       -0.15625        0.15625
 BRILLOUIN|    92           0.00049       -0.46875       -0.15625        0.21875
 BRILLOUIN|    93           0.00049       -0.46875       -0.15625        0.28125
 BRILLOUIN|    94           0.00049       -0.46875       -0.15625        0.34375
 BRILLOUIN|    95           0.00049       -0.46875       -0.15625        0.40625
 BRILLOUIN|    96           0.00049       -0.46875       -0.15625        0.46875
 BRILLOUIN|    97           0.00049       -0.46875       -0.09375       -0.46875
 BRILLOUIN|    98           0.00049       -0.46875       -0.09375       -0.40625
 BRILLOUIN|    99           0.00049       -0.46875       -0.09375       -0.34375
 BRILLOUIN|   100           0.00049       -0.46875       -0.09375       -0.28125
 BRILLOUIN|   101           0.00049       -0.46875       -0.09375       -0.21875
 BRILLOUIN|   102           0.00049       -0.46875       -0.09375       -0.15625
 BRILLOUIN|   103           0.00049       -0.46875       -0.09375       -0.09375
 BRILLOUIN|   104           0.00049       -0.46875       -0.09375       -0.03125
 BRILLOUIN|   105           0.00049       -0.46875       -0.09375        0.03125
 BRILLOUIN|   106           0.00049       -0.46875       -0.09375        0.09375
 BRILLOUIN|   107           0.00049       -0.46875       -0.09375        0.15625
 BRILLOUIN|   108           0.00049       -0.46875       -0.09375        0.21875
 BRILLOUIN|   109           0.00049       -0.46875       -0.09375        0.28125
 BRILLOUIN|   110           0.00049       -0.46875       -0.09375        0.34375
 BRILLOUIN|   111           0.00049       -0.46875       -0.09375        0.40625
 BRILLOUIN|   112           0.00049       -0.46875       -0.09375        0.46875
 BRILLOUIN|   113           0.00049       -0.46875       -0.03125       -0.46875
 BRILLOUIN|   114           0.00049       -0.46875       -0.03125       -0.40625
 BRILLOUIN|   115           0.00049       -0.46875       -0.03125       -0.34375
 BRILLOUIN|   116           0.00049       -0.46875       -0.03125       -0.28125
 BRILLOUIN|   117           0.00049       -0.46875       -0.03125       -0.21875
 BRILLOUIN|   118           0.00049       -0.46875       -0.03125       -0.15625
 BRILLOUIN|   119           0.00049       -0.46875       -0.03125       -0.09375
 BRILLOUIN|   120           0.00049       -0.46875       -0.03125       -0.03125
 BRILLOUIN|   121           0.00049       -0.46875       -0.03125        0.03125
 BRILLOUIN|   122           0.00049       -0.46875       -0.03125        0.09375
 BRILLOUIN|   123           0.00049       -0.46875       -0.03125        0.15625
 BRILLOUIN|   124           0.00049       -0.46875       -0.03125        0.21875
 BRILLOUIN|   125           0.00049       -0.46875       -0.03125        0.28125
 BRILLOUIN|   126           0.00049       -0.46875       -0.03125        0.34375
 BRILLOUIN|   127           0.00049       -0.46875       -0.03125        0.40625
 BRILLOUIN|   128           0.00049       -0.46875       -0.03125        0.46875
 BRILLOUIN|   129           0.00049       -0.46875        0.03125       -0.46875
 BRILLOUIN|   130           0.00049       -0.46875        0.03125       -0.40625
 BRILLOUIN|   131           0.00049       -0.46875        0.03125       -0.34375
 BRILLOUIN|   132           0.00049       -0.46875        0.03125       -0.28125
 BRILLOUIN|   133           0.00049       -0.46875        0.03125       -0.21875
 BRILLOUIN|   134           0.00049       -0.46875        0.03125       -0.15625
 BRILLOUIN|   135           0.00049       -0.46875        0.03125       -0.09375
 BRILLOUIN|   136           0.00049       -0.46875        0.03125       -0.03125
 BRILLOUIN|   137           0.00049       -0.46875        0.03125        0.03125
 BRILLOUIN|   138           0.00049       -0.46875        0.03125        0.09375
 BRILLOUIN|   139           0.00049       -0.46875        0.03125        0.15625
 BRILLOUIN|   140           0.00049       -0.46875        0.03125        0.21875
 BRILLOUIN|   141           0.00049       -0.46875        0.03125        0.28125
 BRILLOUIN|   142           0.00049       -0.46875        0.03125        0.34375
 BRILLOUIN|   143           0.00049       -0.46875        0.03125        0.40625
 BRILLOUIN|   144           0.00049       -0.46875        0.03125        0.46875
 BRILLOUIN|   145           0.00049       -0.46875        0.09375       -0.46875
 BRILLOUIN|   146           0.00049       -0.46875        0.09375       -0.40625
 BRILLOUIN|   147           0.00049       -0.46875        0.09375       -0.34375
 BRILLOUIN|   148           0.00049       -0.46875        0.09375       -0.28125
 BRILLOUIN|   149           0.00049       -0.46875        0.09375       -0.21875
 BRILLOUIN|   150           0.00049       -0.46875        0.09375       -0.15625
 BRILLOUIN|   151           0.00049       -0.46875        0.09375       -0.09375
 BRILLOUIN|   152           0.00049       -0.46875        0.09375       -0.03125
 BRILLOUIN|   153           0.00049       -0.46875        0.09375        0.03125
 BRILLOUIN|   154           0.00049       -0.46875        0.09375        0.09375
 BRILLOUIN|   155           0.00049       -0.46875        0.09375        0.15625
 BRILLOUIN|   156           0.00049       -0.46875        0.09375        0.21875
 BRILLOUIN|   157           0.00049       -0.46875        0.09375        0.28125
 BRILLOUIN|   158           0.00049       -0.46875        0.09375        0.34375
 BRILLOUIN|   159           0.00049       -0.46875        0.09375        0.40625
 BRILLOUIN|   160           0.00049       -0.46875        0.09375        0.46875
 BRILLOUIN|   161           0.00049       -0.46875        0.15625       -0.46875
 BRILLOUIN|   162           0.00049       -0.46875        0.15625       -0.40625
 BRILLOUIN|   163           0.00049       -0.46875        0.15625       -0.34375
 BRILLOUIN|   164           0.00049       -0.46875        0.15625       -0.28125
 BRILLOUIN|   165           0.00049       -0.46875        0.15625       -0.21875
 BRILLOUIN|   166           0.00049       -0.46875        0.15625       -0.15625
 BRILLOUIN|   167           0.00049       -0.46875        0.15625       -0.09375
 BRILLOUIN|   168           0.00049       -0.46875        0.15625       -0.03125
 BRILLOUIN|   169           0.00049       -0.46875        0.15625        0.03125
 BRILLOUIN|   170           0.00049       -0.46875        0.15625        0.09375
 BRILLOUIN|   171           0.00049       -0.46875        0.15625        0.15625
 BRILLOUIN|   172           0.00049       -0.46875        0.15625        0.21875
 BRILLOUIN|   173           0.00049       -0.46875        0.15625        0.28125
 BRILLOUIN|   174           0.00049       -0.46875        0.15625        0.34375
 BRILLOUIN|   175           0.00049       -0.46875        0.15625        0.40625
 BRILLOUIN|   176           0.00049       -0.46875        0.15625        0.46875
 BRILLOUIN|   177           0.00049       -0.46875        0.21875       -0.46875
 BRILLOUIN|   178           0.00049       -0.46875        0.21875       -0.40625
 BRILLOUIN|   179           0.00049       -0.46875        0.21875       -0.34375
 BRILLOUIN|   180           0.00049       -0.46875        0.21875       -0.28125
 BRILLOUIN|   181           0.00049       -0.46875        0.21875       -0.21875
 BRILLOUIN|   182           0.00049       -0.46875        0.21875       -0.15625
 BRILLOUIN|   183           0.00049       -0.46875        0.21875       -0.09375
 BRILLOUIN|   184           0.00049       -0.46875        0.21875       -0.03125
 BRILLOUIN|   185           0.00049       -0.46875        0.21875        0.03125
 BRILLOUIN|   186           0.00049       -0.46875        0.21875        0.09375
 BRILLOUIN|   187           0.00049       -0.46875        0.21875        0.15625
 BRILLOUIN|   188           0.00049       -0.46875        0.21875        0.21875
 BRILLOUIN|   189           0.00049       -0.46875        0.21875        0.28125
 BRILLOUIN|   190           0.00049       -0.46875        0.21875        0.34375
 BRILLOUIN|   191           0.00049       -0.46875        0.21875        0.40625
 BRILLOUIN|   192           0.00049       -0.46875        0.21875        0.46875
 BRILLOUIN|   193           0.00049       -0.46875        0.28125       -0.46875
 BRILLOUIN|   194           0.00049       -0.46875        0.28125       -0.40625
 BRILLOUIN|   195           0.00049       -0.46875        0.28125       -0.34375
 BRILLOUIN|   196           0.00049       -0.46875        0.28125       -0.28125
 BRILLOUIN|   197           0.00049       -0.46875        0.28125       -0.21875
 BRILLOUIN|   198           0.00049       -0.46875        0.28125       -0.15625
 BRILLOUIN|   199           0.00049       -0.46875        0.28125       -0.09375
 BRILLOUIN|   200           0.00049       -0.46875        0.28125       -0.03125
 BRILLOUIN|   201           0.00049       -0.46875        0.28125        0.03125
 BRILLOUIN|   202           0.00049       -0.46875        0.28125        0.09375
 BRILLOUIN|   203           0.00049       -0.46875        0.28125        0.15625
 BRILLOUIN|   204           0.00049       -0.46875        0.28125        0.21875
 BRILLOUIN|   205           0.00049       -0.46875        0.28125        0.28125
 BRILLOUIN|   206           0.00049       -0.46875        0.28125        0.34375
 BRILLOUIN|   207           0.00049       -0.46875        0.28125        0.40625
 BRILLOUIN|   208           0.00049       -0.46875        0.28125        0.46875
 BRILLOUIN|   209           0.00049       -0.46875        0.34375       -0.46875
 BRILLOUIN|   210           0.00049       -0.46875        0.34375       -0.40625
 BRILLOUIN|   211           0.00049       -0.46875        0.34375       -0.34375
 BRILLOUIN|   212           0.00049       -0.46875        0.34375       -0.28125
 BRILLOUIN|   213           0.00049       -0.46875        0.34375       -0.21875
 BRILLOUIN|   214           0.00049       -0.46875        0.34375       -0.15625
 BRILLOUIN|   215           0.00049       -0.46875        0.34375       -0.09375
 BRILLOUIN|   216           0.00049       -0.46875        0.34375       -0.03125
 BRILLOUIN|   217           0.00049       -0.46875        0.34375        0.03125
 BRILLOUIN|   218           0.00049       -0.46875        0.34375        0.09375
 BRILLOUIN|   219           0.00049       -0.46875        0.34375        0.15625
 BRILLOUIN|   220           0.00049       -0.46875        0.34375        0.21875
 BRILLOUIN|   221           0.00049       -0.46875        0.34375        0.28125
 BRILLOUIN|   222           0.00049       -0.46875        0.34375        0.34375
 BRILLOUIN|   223           0.00049       -0.46875        0.34375        0.40625
 BRILLOUIN|   224           0.00049       -0.46875        0.34375        0.46875
 BRILLOUIN|   225           0.00049       -0.46875        0.40625       -0.46875
 BRILLOUIN|   226           0.00049       -0.46875        0.40625       -0.40625
 BRILLOUIN|   227           0.00049       -0.46875        0.40625       -0.34375
 BRILLOUIN|   228           0.00049       -0.46875        0.40625       -0.28125
 BRILLOUIN|   229           0.00049       -0.46875        0.40625       -0.21875
 BRILLOUIN|   230           0.00049       -0.46875        0.40625       -0.15625
 BRILLOUIN|   231           0.00049       -0.46875        0.40625       -0.09375
 BRILLOUIN|   232           0.00049       -0.46875        0.40625       -0.03125
 BRILLOUIN|   233           0.00049       -0.46875        0.40625        0.03125
 BRILLOUIN|   234           0.00049       -0.46875        0.40625        0.09375
 BRILLOUIN|   235           0.00049       -0.46875        0.40625        0.15625
 BRILLOUIN|   236           0.00049       -0.46875        0.40625        0.21875
 BRILLOUIN|   237           0.00049       -0.46875        0.40625        0.28125
 BRILLOUIN|   238           0.00049       -0.46875        0.40625        0.34375
 BRILLOUIN|   239           0.00049       -0.46875        0.40625        0.40625
 BRILLOUIN|   240           0.00049       -0.46875        0.40625        0.46875
 BRILLOUIN|   241           0.00049       -0.46875        0.46875       -0.46875
 BRILLOUIN|   242           0.00049       -0.46875        0.46875       -0.40625
 BRILLOUIN|   243           0.00049       -0.46875        0.46875       -0.34375
 BRILLOUIN|   244           0.00049       -0.46875        0.46875       -0.28125
 BRILLOUIN|   245           0.00049       -0.46875        0.46875       -0.21875
 BRILLOUIN|   246           0.00049       -0.46875        0.46875       -0.15625
 BRILLOUIN|   247           0.00049       -0.46875        0.46875       -0.09375
 BRILLOUIN|   248           0.00049       -0.46875        0.46875       -0.03125
 BRILLOUIN|   249           0.00049       -0.46875        0.46875        0.03125
 BRILLOUIN|   250           0.00049       -0.46875        0.46875        0.09375
 BRILLOUIN|   251           0.00049       -0.46875        0.46875        0.15625
 BRILLOUIN|   252           0.00049       -0.46875        0.46875        0.21875
 BRILLOUIN|   253           0.00049       -0.46875        0.46875        0.28125
 BRILLOUIN|   254           0.00049       -0.46875        0.46875        0.34375
 BRILLOUIN|   255           0.00049       -0.46875        0.46875        0.40625
 BRILLOUIN|   256           0.00049       -0.46875        0.46875        0.46875
 BRILLOUIN|   257           0.00049       -0.40625       -0.46875       -0.46875
 BRILLOUIN|   258           0.00049       -0.40625       -0.46875       -0.40625
 BRILLOUIN|   259           0.00049       -0.40625       -0.46875       -0.34375
 BRILLOUIN|   260           0.00049       -0.40625       -0.46875       -0.28125
 BRILLOUIN|   261           0.00049       -0.40625       -0.46875       -0.21875
 BRILLOUIN|   262           0.00049       -0.40625       -0.46875       -0.15625
 BRILLOUIN|   263           0.00049       -0.40625       -0.46875       -0.09375
 BRILLOUIN|   264           0.00049       -0.40625       -0.46875       -0.03125
 BRILLOUIN|   265           0.00049       -0.40625       -0.46875        0.03125
 BRILLOUIN|   266           0.00049       -0.40625       -0.46875        0.09375
 BRILLOUIN|   267           0.00049       -0.40625       -0.46875        0.15625
 BRILLOUIN|   268           0.00049       -0.40625       -0.46875        0.21875
 BRILLOUIN|   269           0.00049       -0.40625       -0.46875        0.28125
 BRILLOUIN|   270           0.00049       -0.40625       -0.46875        0.34375
 BRILLOUIN|   271           0.00049       -0.40625       -0.46875        0.40625
 BRILLOUIN|   272           0.00049       -0.40625       -0.46875        0.46875
 BRILLOUIN|   273           0.00049       -0.40625       -0.40625       -0.46875
 BRILLOUIN|   274           0.00049       -0.40625       -0.40625       -0.40625
 BRILLOUIN|   275           0.00049       -0.40625       -0.40625       -0.34375
 BRILLOUIN|   276           0.00049       -0.40625       -0.40625       -0.28125
 BRILLOUIN|   277           0.00049       -0.40625       -0.40625       -0.21875
 BRILLOUIN|   278           0.00049       -0.40625       -0.40625       -0.15625
 BRILLOUIN|   279           0.00049       -0.40625       -0.40625       -0.09375
 BRILLOUIN|   280           0.00049       -0.40625       -0.40625       -0.03125
 BRILLOUIN|   281           0.00049       -0.40625       -0.40625        0.03125
 BRILLOUIN|   282           0.00049       -0.40625       -0.40625        0.09375
 BRILLOUIN|   283           0.00049       -0.40625       -0.40625        0.15625
 BRILLOUIN|   284           0.00049       -0.40625       -0.40625        0.21875
 BRILLOUIN|   285           0.00049       -0.40625       -0.40625        0.28125
 BRILLOUIN|   286           0.00049       -0.40625       -0.40625        0.34375
 BRILLOUIN|   287           0.00049       -0.40625       -0.40625        0.40625
 BRILLOUIN|   288           0.00049       -0.40625       -0.40625        0.46875
 BRILLOUIN|   289           0.00049       -0.40625       -0.34375       -0.46875
 BRILLOUIN|   290           0.00049       -0.40625       -0.34375       -0.40625
 BRILLOUIN|   291           0.00049       -0.40625       -0.34375       -0.34375
 BRILLOUIN|   292           0.00049       -0.40625       -0.34375       -0.28125
 BRILLOUIN|   293           0.00049       -0.40625       -0.34375       -0.21875
 BRILLOUIN|   294           0.00049       -0.40625       -0.34375       -0.15625
 BRILLOUIN|   295           0.00049       -0.40625       -0.34375       -0.09375
 BRILLOUIN|   296           0.00049       -0.40625       -0.34375       -0.03125
 BRILLOUIN|   297           0.00049       -0.40625       -0.34375        0.03125
 BRILLOUIN|   298           0.00049       -0.40625       -0.34375        0.09375
 BRILLOUIN|   299           0.00049       -0.40625       -0.34375        0.15625
 BRILLOUIN|   300           0.00049       -0.40625       -0.34375        0.21875
 BRILLOUIN|   301           0.00049       -0.40625       -0.34375        0.28125
 BRILLOUIN|   302           0.00049       -0.40625       -0.34375        0.34375
 BRILLOUIN|   303           0.00049       -0.40625       -0.34375        0.40625
 BRILLOUIN|   304           0.00049       -0.40625       -0.34375        0.46875
 BRILLOUIN|   305           0.00049       -0.40625       -0.28125       -0.46875
 BRILLOUIN|   306           0.00049       -0.40625       -0.28125       -0.40625
 BRILLOUIN|   307           0.00049       -0.40625       -0.28125       -0.34375
 BRILLOUIN|   308           0.00049       -0.40625       -0.28125       -0.28125
 BRILLOUIN|   309           0.00049       -0.40625       -0.28125       -0.21875
 BRILLOUIN|   310           0.00049       -0.40625       -0.28125       -0.15625
 BRILLOUIN|   311           0.00049       -0.40625       -0.28125       -0.09375
 BRILLOUIN|   312           0.00049       -0.40625       -0.28125       -0.03125
 BRILLOUIN|   313           0.00049       -0.40625       -0.28125        0.03125
 BRILLOUIN|   314           0.00049       -0.40625       -0.28125        0.09375
 BRILLOUIN|   315           0.00049       -0.40625       -0.28125        0.15625
 BRILLOUIN|   316           0.00049       -0.40625       -0.28125        0.21875
 BRILLOUIN|   317           0.00049       -0.40625       -0.28125        0.28125
 BRILLOUIN|   318           0.00049       -0.40625       -0.28125        0.34375
 BRILLOUIN|   319           0.00049       -0.40625       -0.28125        0.40625
 BRILLOUIN|   320           0.00049       -0.40625       -0.28125        0.46875
 BRILLOUIN|   321           0.00049       -0.40625       -0.21875       -0.46875
 BRILLOUIN|   322           0.00049       -0.40625       -0.21875       -0.40625
 BRILLOUIN|   323           0.00049       -0.40625       -0.21875       -0.34375
 BRILLOUIN|   324           0.00049       -0.40625       -0.21875       -0.28125
 BRILLOUIN|   325           0.00049       -0.40625       -0.21875       -0.21875
 BRILLOUIN|   326           0.00049       -0.40625       -0.21875       -0.15625
 BRILLOUIN|   327           0.00049       -0.40625       -0.21875       -0.09375
 BRILLOUIN|   328           0.00049       -0.40625       -0.21875       -0.03125
 BRILLOUIN|   329           0.00049       -0.40625       -0.21875        0.03125
 BRILLOUIN|   330           0.00049       -0.40625       -0.21875        0.09375
 BRILLOUIN|   331           0.00049       -0.40625       -0.21875        0.15625
 BRILLOUIN|   332           0.00049       -0.40625       -0.21875        0.21875
 BRILLOUIN|   333           0.00049       -0.40625       -0.21875        0.28125
 BRILLOUIN|   334           0.00049       -0.40625       -0.21875        0.34375
 BRILLOUIN|   335           0.00049       -0.40625       -0.21875        0.40625
 BRILLOUIN|   336           0.00049       -0.40625       -0.21875        0.46875
 BRILLOUIN|   337           0.00049       -0.40625       -0.15625       -0.46875
 BRILLOUIN|   338           0.00049       -0.40625       -0.15625       -0.40625
 BRILLOUIN|   339           0.00049       -0.40625       -0.15625       -0.34375
 BRILLOUIN|   340           0.00049       -0.40625       -0.15625       -0.28125
 BRILLOUIN|   341           0.00049       -0.40625       -0.15625       -0.21875
 BRILLOUIN|   342           0.00049       -0.40625       -0.15625       -0.15625
 BRILLOUIN|   343           0.00049       -0.40625       -0.15625       -0.09375
 BRILLOUIN|   344           0.00049       -0.40625       -0.15625       -0.03125
 BRILLOUIN|   345           0.00049       -0.40625       -0.15625        0.03125
 BRILLOUIN|   346           0.00049       -0.40625       -0.15625        0.09375
 BRILLOUIN|   347           0.00049       -0.40625       -0.15625        0.15625
 BRILLOUIN|   348           0.00049       -0.40625       -0.15625        0.21875
 BRILLOUIN|   349           0.00049       -0.40625       -0.15625        0.28125
 BRILLOUIN|   350           0.00049       -0.40625       -0.15625        0.34375
 BRILLOUIN|   351           0.00049       -0.40625       -0.15625        0.40625
 BRILLOUIN|   352           0.00049       -0.40625       -0.15625        0.46875
 BRILLOUIN|   353           0.00049       -0.40625       -0.09375       -0.46875
 BRILLOUIN|   354           0.00049       -0.40625       -0.09375       -0.40625
 BRILLOUIN|   355           0.00049       -0.40625       -0.09375       -0.34375
 BRILLOUIN|   356           0.00049       -0.40625       -0.09375       -0.28125
 BRILLOUIN|   357           0.00049       -0.40625       -0.09375       -0.21875
 BRILLOUIN|   358           0.00049       -0.40625       -0.09375       -0.15625
 BRILLOUIN|   359           0.00049       -0.40625       -0.09375       -0.09375
 BRILLOUIN|   360           0.00049       -0.40625       -0.09375       -0.03125
 BRILLOUIN|   361           0.00049       -0.40625       -0.09375        0.03125
 BRILLOUIN|   362           0.00049       -0.40625       -0.09375        0.09375
 BRILLOUIN|   363           0.00049       -0.40625       -0.09375        0.15625
 BRILLOUIN|   364           0.00049       -0.40625       -0.09375        0.21875
 BRILLOUIN|   365           0.00049       -0.40625       -0.09375        0.28125
 BRILLOUIN|   366           0.00049       -0.40625       -0.09375        0.34375
 BRILLOUIN|   367           0.00049       -0.40625       -0.09375        0.40625
 BRILLOUIN|   368           0.00049       -0.40625       -0.09375        0.46875
 BRILLOUIN|   369           0.00049       -0.40625       -0.03125       -0.46875
 BRILLOUIN|   370           0.00049       -0.40625       -0.03125       -0.40625
 BRILLOUIN|   371           0.00049       -0.40625       -0.03125       -0.34375
 BRILLOUIN|   372           0.00049       -0.40625       -0.03125       -0.28125
 BRILLOUIN|   373           0.00049       -0.40625       -0.03125       -0.21875
 BRILLOUIN|   374           0.00049       -0.40625       -0.03125       -0.15625
 BRILLOUIN|   375           0.00049       -0.40625       -0.03125       -0.09375
 BRILLOUIN|   376           0.00049       -0.40625       -0.03125       -0.03125
 BRILLOUIN|   377           0.00049       -0.40625       -0.03125        0.03125
 BRILLOUIN|   378           0.00049       -0.40625       -0.03125        0.09375
 BRILLOUIN|   379           0.00049       -0.40625       -0.03125        0.15625
 BRILLOUIN|   380           0.00049       -0.40625       -0.03125        0.21875
 BRILLOUIN|   381           0.00049       -0.40625       -0.03125        0.28125
 BRILLOUIN|   382           0.00049       -0.40625       -0.03125        0.34375
 BRILLOUIN|   383           0.00049       -0.40625       -0.03125        0.40625
 BRILLOUIN|   384           0.00049       -0.40625       -0.03125        0.46875
 BRILLOUIN|   385           0.00049       -0.40625        0.03125       -0.46875
 BRILLOUIN|   386           0.00049       -0.40625        0.03125       -0.40625
 BRILLOUIN|   387           0.00049       -0.40625        0.03125       -0.34375
 BRILLOUIN|   388           0.00049       -0.40625        0.03125       -0.28125
 BRILLOUIN|   389           0.00049       -0.40625        0.03125       -0.21875
 BRILLOUIN|   390           0.00049       -0.40625        0.03125       -0.15625
 BRILLOUIN|   391           0.00049       -0.40625        0.03125       -0.09375
 BRILLOUIN|   392           0.00049       -0.40625        0.03125       -0.03125
 BRILLOUIN|   393           0.00049       -0.40625        0.03125        0.03125
 BRILLOUIN|   394           0.00049       -0.40625        0.03125        0.09375
 BRILLOUIN|   395           0.00049       -0.40625        0.03125        0.15625
 BRILLOUIN|   396           0.00049       -0.40625        0.03125        0.21875
 BRILLOUIN|   397           0.00049       -0.40625        0.03125        0.28125
 BRILLOUIN|   398           0.00049       -0.40625        0.03125        0.34375
 BRILLOUIN|   399           0.00049       -0.40625        0.03125        0.40625
 BRILLOUIN|   400           0.00049       -0.40625        0.03125        0.46875
 BRILLOUIN|   401           0.00049       -0.40625        0.09375       -0.46875
 BRILLOUIN|   402           0.00049       -0.40625        0.09375       -0.40625
 BRILLOUIN|   403           0.00049       -0.40625        0.09375       -0.34375
 BRILLOUIN|   404           0.00049       -0.40625        0.09375       -0.28125
 BRILLOUIN|   405           0.00049       -0.40625        0.09375       -0.21875
 BRILLOUIN|   406           0.00049       -0.40625        0.09375       -0.15625
 BRILLOUIN|   407           0.00049       -0.40625        0.09375       -0.09375
 BRILLOUIN|   408           0.00049       -0.40625        0.09375       -0.03125
 BRILLOUIN|   409           0.00049       -0.40625        0.09375        0.03125
 BRILLOUIN|   410           0.00049       -0.40625        0.09375        0.09375
 BRILLOUIN|   411           0.00049       -0.40625        0.09375        0.15625
 BRILLOUIN|   412           0.00049       -0.40625        0.09375        0.21875
 BRILLOUIN|   413           0.00049       -0.40625        0.09375        0.28125
 BRILLOUIN|   414           0.00049       -0.40625        0.09375        0.34375
 BRILLOUIN|   415           0.00049       -0.40625        0.09375        0.40625
 BRILLOUIN|   416           0.00049       -0.40625        0.09375        0.46875
 BRILLOUIN|   417           0.00049       -0.40625        0.15625       -0.46875
 BRILLOUIN|   418           0.00049       -0.40625        0.15625       -0.40625
 BRILLOUIN|   419           0.00049       -0.40625        0.15625       -0.34375
 BRILLOUIN|   420           0.00049       -0.40625        0.15625       -0.28125
 BRILLOUIN|   421           0.00049       -0.40625        0.15625       -0.21875
 BRILLOUIN|   422           0.00049       -0.40625        0.15625       -0.15625
 BRILLOUIN|   423           0.00049       -0.40625        0.15625       -0.09375
 BRILLOUIN|   424           0.00049       -0.40625        0.15625       -0.03125
 BRILLOUIN|   425           0.00049       -0.40625        0.15625        0.03125
 BRILLOUIN|   426           0.00049       -0.40625        0.15625        0.09375
 BRILLOUIN|   427           0.00049       -0.40625        0.15625        0.15625
 BRILLOUIN|   428           0.00049       -0.40625        0.15625        0.21875
 BRILLOUIN|   429           0.00049       -0.40625        0.15625        0.28125
 BRILLOUIN|   430           0.00049       -0.40625        0.15625        0.34375
 BRILLOUIN|   431           0.00049       -0.40625        0.15625        0.40625
 BRILLOUIN|   432           0.00049       -0.40625        0.15625        0.46875
 BRILLOUIN|   433           0.00049       -0.40625        0.21875       -0.46875
 BRILLOUIN|   434           0.00049       -0.40625        0.21875       -0.40625
 BRILLOUIN|   435           0.00049       -0.40625        0.21875       -0.34375
 BRILLOUIN|   436           0.00049       -0.40625        0.21875       -0.28125
 BRILLOUIN|   437           0.00049       -0.40625        0.21875       -0.21875
 BRILLOUIN|   438           0.00049       -0.40625        0.21875       -0.15625
 BRILLOUIN|   439           0.00049       -0.40625        0.21875       -0.09375
 BRILLOUIN|   440           0.00049       -0.40625        0.21875       -0.03125
 BRILLOUIN|   441           0.00049       -0.40625        0.21875        0.03125
 BRILLOUIN|   442           0.00049       -0.40625        0.21875        0.09375
 BRILLOUIN|   443           0.00049       -0.40625        0.21875        0.15625
 BRILLOUIN|   444           0.00049       -0.40625        0.21875        0.21875
 BRILLOUIN|   445           0.00049       -0.40625        0.21875        0.28125
 BRILLOUIN|   446           0.00049       -0.40625        0.21875        0.34375
 BRILLOUIN|   447           0.00049       -0.40625        0.21875        0.40625
 BRILLOUIN|   448           0.00049       -0.40625        0.21875        0.46875
 BRILLOUIN|   449           0.00049       -0.40625        0.28125       -0.46875
 BRILLOUIN|   450           0.00049       -0.40625        0.28125       -0.40625
 BRILLOUIN|   451           0.00049       -0.40625        0.28125       -0.34375
 BRILLOUIN|   452           0.00049       -0.40625        0.28125       -0.28125
 BRILLOUIN|   453           0.00049       -0.40625        0.28125       -0.21875
 BRILLOUIN|   454           0.00049       -0.40625        0.28125       -0.15625
 BRILLOUIN|   455           0.00049       -0.40625        0.28125       -0.09375
 BRILLOUIN|   456           0.00049       -0.40625        0.28125       -0.03125
 BRILLOUIN|   457           0.00049       -0.40625        0.28125        0.03125
 BRILLOUIN|   458           0.00049       -0.40625        0.28125        0.09375
 BRILLOUIN|   459           0.00049       -0.40625        0.28125        0.15625
 BRILLOUIN|   460           0.00049       -0.40625        0.28125        0.21875
 BRILLOUIN|   461           0.00049       -0.40625        0.28125        0.28125
 BRILLOUIN|   462           0.00049       -0.40625        0.28125        0.34375
 BRILLOUIN|   463           0.00049       -0.40625        0.28125        0.40625
 BRILLOUIN|   464           0.00049       -0.40625        0.28125        0.46875
 BRILLOUIN|   465           0.00049       -0.40625        0.34375       -0.46875
 BRILLOUIN|   466           0.00049       -0.40625        0.34375       -0.40625
 BRILLOUIN|   467           0.00049       -0.40625        0.34375       -0.34375
 BRILLOUIN|   468           0.00049       -0.40625        0.34375       -0.28125
 BRILLOUIN|   469           0.00049       -0.40625        0.34375       -0.21875
 BRILLOUIN|   470           0.00049       -0.40625        0.34375       -0.15625
 BRILLOUIN|   471           0.00049       -0.40625        0.34375       -0.09375
 BRILLOUIN|   472           0.00049       -0.40625        0.34375       -0.03125
 BRILLOUIN|   473           0.00049       -0.40625        0.34375        0.03125
 BRILLOUIN|   474           0.00049       -0.40625        0.34375        0.09375
 BRILLOUIN|   475           0.00049       -0.40625        0.34375        0.15625
 BRILLOUIN|   476           0.00049       -0.40625        0.34375        0.21875
 BRILLOUIN|   477           0.00049       -0.40625        0.34375        0.28125
 BRILLOUIN|   478           0.00049       -0.40625        0.34375        0.34375
 BRILLOUIN|   479           0.00049       -0.40625        0.34375        0.40625
 BRILLOUIN|   480           0.00049       -0.40625        0.34375        0.46875
 BRILLOUIN|   481           0.00049       -0.40625        0.40625       -0.46875
 BRILLOUIN|   482           0.00049       -0.40625        0.40625       -0.40625
 BRILLOUIN|   483           0.00049       -0.40625        0.40625       -0.34375
 BRILLOUIN|   484           0.00049       -0.40625        0.40625       -0.28125
 BRILLOUIN|   485           0.00049       -0.40625        0.40625       -0.21875
 BRILLOUIN|   486           0.00049       -0.40625        0.40625       -0.15625
 BRILLOUIN|   487           0.00049       -0.40625        0.40625       -0.09375
 BRILLOUIN|   488           0.00049       -0.40625        0.40625       -0.03125
 BRILLOUIN|   489           0.00049       -0.40625        0.40625        0.03125
 BRILLOUIN|   490           0.00049       -0.40625        0.40625        0.09375
 BRILLOUIN|   491           0.00049       -0.40625        0.40625        0.15625
 BRILLOUIN|   492           0.00049       -0.40625        0.40625        0.21875
 BRILLOUIN|   493           0.00049       -0.40625        0.40625        0.28125
 BRILLOUIN|   494           0.00049       -0.40625        0.40625        0.34375
 BRILLOUIN|   495           0.00049       -0.40625        0.40625        0.40625
 BRILLOUIN|   496           0.00049       -0.40625        0.40625        0.46875
 BRILLOUIN|   497           0.00049       -0.40625        0.46875       -0.46875
 BRILLOUIN|   498           0.00049       -0.40625        0.46875       -0.40625
 BRILLOUIN|   499           0.00049       -0.40625        0.46875       -0.34375
 BRILLOUIN|   500           0.00049       -0.40625        0.46875       -0.28125
 BRILLOUIN|   501           0.00049       -0.40625        0.46875       -0.21875
 BRILLOUIN|   502           0.00049       -0.40625        0.46875       -0.15625
 BRILLOUIN|   503           0.00049       -0.40625        0.46875       -0.09375
 BRILLOUIN|   504           0.00049       -0.40625        0.46875       -0.03125
 BRILLOUIN|   505           0.00049       -0.40625        0.46875        0.03125
 BRILLOUIN|   506           0.00049       -0.40625        0.46875        0.09375
 BRILLOUIN|   507           0.00049       -0.40625        0.46875        0.15625
 BRILLOUIN|   508           0.00049       -0.40625        0.46875        0.21875
 BRILLOUIN|   509           0.00049       -0.40625        0.46875        0.28125
 BRILLOUIN|   510           0.00049       -0.40625        0.46875        0.34375
 BRILLOUIN|   511           0.00049       -0.40625        0.46875        0.40625
 BRILLOUIN|   512           0.00049       -0.40625        0.46875        0.46875
 BRILLOUIN|   513           0.00049       -0.34375       -0.46875       -0.46875
 BRILLOUIN|   514           0.00049       -0.34375       -0.46875       -0.40625
 BRILLOUIN|   515           0.00049       -0.34375       -0.46875       -0.34375
 BRILLOUIN|   516           0.00049       -0.34375       -0.46875       -0.28125
 BRILLOUIN|   517           0.00049       -0.34375       -0.46875       -0.21875
 BRILLOUIN|   518           0.00049       -0.34375       -0.46875       -0.15625
 BRILLOUIN|   519           0.00049       -0.34375       -0.46875       -0.09375
 BRILLOUIN|   520           0.00049       -0.34375       -0.46875       -0.03125
 BRILLOUIN|   521           0.00049       -0.34375       -0.46875        0.03125
 BRILLOUIN|   522           0.00049       -0.34375       -0.46875        0.09375
 BRILLOUIN|   523           0.00049       -0.34375       -0.46875        0.15625
 BRILLOUIN|   524           0.00049       -0.34375       -0.46875        0.21875
 BRILLOUIN|   525           0.00049       -0.34375       -0.46875        0.28125
 BRILLOUIN|   526           0.00049       -0.34375       -0.46875        0.34375
 BRILLOUIN|   527           0.00049       -0.34375       -0.46875        0.40625
 BRILLOUIN|   528           0.00049       -0.34375       -0.46875        0.46875
 BRILLOUIN|   529           0.00049       -0.34375       -0.40625       -0.46875
 BRILLOUIN|   530           0.00049       -0.34375       -0.40625       -0.40625
 BRILLOUIN|   531           0.00049       -0.34375       -0.40625       -0.34375
 BRILLOUIN|   532           0.00049       -0.34375       -0.40625       -0.28125
 BRILLOUIN|   533           0.00049       -0.34375       -0.40625       -0.21875
 BRILLOUIN|   534           0.00049       -0.34375       -0.40625       -0.15625
 BRILLOUIN|   535           0.00049       -0.34375       -0.40625       -0.09375
 BRILLOUIN|   536           0.00049       -0.34375       -0.40625       -0.03125
 BRILLOUIN|   537           0.00049       -0.34375       -0.40625        0.03125
 BRILLOUIN|   538           0.00049       -0.34375       -0.40625        0.09375
 BRILLOUIN|   539           0.00049       -0.34375       -0.40625        0.15625
 BRILLOUIN|   540           0.00049       -0.34375       -0.40625        0.21875
 BRILLOUIN|   541           0.00049       -0.34375       -0.40625        0.28125
 BRILLOUIN|   542           0.00049       -0.34375       -0.40625        0.34375
 BRILLOUIN|   543           0.00049       -0.34375       -0.40625        0.40625
 BRILLOUIN|   544           0.00049       -0.34375       -0.40625        0.46875
 BRILLOUIN|   545           0.00049       -0.34375       -0.34375       -0.46875
 BRILLOUIN|   546           0.00049       -0.34375       -0.34375       -0.40625
 BRILLOUIN|   547           0.00049       -0.34375       -0.34375       -0.34375
 BRILLOUIN|   548           0.00049       -0.34375       -0.34375       -0.28125
 BRILLOUIN|   549           0.00049       -0.34375       -0.34375       -0.21875
 BRILLOUIN|   550           0.00049       -0.34375       -0.34375       -0.15625
 BRILLOUIN|   551           0.00049       -0.34375       -0.34375       -0.09375
 BRILLOUIN|   552           0.00049       -0.34375       -0.34375       -0.03125
 BRILLOUIN|   553           0.00049       -0.34375       -0.34375        0.03125
 BRILLOUIN|   554           0.00049       -0.34375       -0.34375        0.09375
 BRILLOUIN|   555           0.00049       -0.34375       -0.34375        0.15625
 BRILLOUIN|   556           0.00049       -0.34375       -0.34375        0.21875
 BRILLOUIN|   557           0.00049       -0.34375       -0.34375        0.28125
 BRILLOUIN|   558           0.00049       -0.34375       -0.34375        0.34375
 BRILLOUIN|   559           0.00049       -0.34375       -0.34375        0.40625
 BRILLOUIN|   560           0.00049       -0.34375       -0.34375        0.46875
 BRILLOUIN|   561           0.00049       -0.34375       -0.28125       -0.46875
 BRILLOUIN|   562           0.00049       -0.34375       -0.28125       -0.40625
 BRILLOUIN|   563           0.00049       -0.34375       -0.28125       -0.34375
 BRILLOUIN|   564           0.00049       -0.34375       -0.28125       -0.28125
 BRILLOUIN|   565           0.00049       -0.34375       -0.28125       -0.21875
 BRILLOUIN|   566           0.00049       -0.34375       -0.28125       -0.15625
 BRILLOUIN|   567           0.00049       -0.34375       -0.28125       -0.09375
 BRILLOUIN|   568           0.00049       -0.34375       -0.28125       -0.03125
 BRILLOUIN|   569           0.00049       -0.34375       -0.28125        0.03125
 BRILLOUIN|   570           0.00049       -0.34375       -0.28125        0.09375
 BRILLOUIN|   571           0.00049       -0.34375       -0.28125        0.15625
 BRILLOUIN|   572           0.00049       -0.34375       -0.28125        0.21875
 BRILLOUIN|   573           0.00049       -0.34375       -0.28125        0.28125
 BRILLOUIN|   574           0.00049       -0.34375       -0.28125        0.34375
 BRILLOUIN|   575           0.00049       -0.34375       -0.28125        0.40625
 BRILLOUIN|   576           0.00049       -0.34375       -0.28125        0.46875
 BRILLOUIN|   577           0.00049       -0.34375       -0.21875       -0.46875
 BRILLOUIN|   578           0.00049       -0.34375       -0.21875       -0.40625
 BRILLOUIN|   579           0.00049       -0.34375       -0.21875       -0.34375
 BRILLOUIN|   580           0.00049       -0.34375       -0.21875       -0.28125
 BRILLOUIN|   581           0.00049       -0.34375       -0.21875       -0.21875
 BRILLOUIN|   582           0.00049       -0.34375       -0.21875       -0.15625
 BRILLOUIN|   583           0.00049       -0.34375       -0.21875       -0.09375
 BRILLOUIN|   584           0.00049       -0.34375       -0.21875       -0.03125
 BRILLOUIN|   585           0.00049       -0.34375       -0.21875        0.03125
 BRILLOUIN|   586           0.00049       -0.34375       -0.21875        0.09375
 BRILLOUIN|   587           0.00049       -0.34375       -0.21875        0.15625
 BRILLOUIN|   588           0.00049       -0.34375       -0.21875        0.21875
 BRILLOUIN|   589           0.00049       -0.34375       -0.21875        0.28125
 BRILLOUIN|   590           0.00049       -0.34375       -0.21875        0.34375
 BRILLOUIN|   591           0.00049       -0.34375       -0.21875        0.40625
 BRILLOUIN|   592           0.00049       -0.34375       -0.21875        0.46875
 BRILLOUIN|   593           0.00049       -0.34375       -0.15625       -0.46875
 BRILLOUIN|   594           0.00049       -0.34375       -0.15625       -0.40625
 BRILLOUIN|   595           0.00049       -0.34375       -0.15625       -0.34375
 BRILLOUIN|   596           0.00049       -0.34375       -0.15625       -0.28125
 BRILLOUIN|   597           0.00049       -0.34375       -0.15625       -0.21875
 BRILLOUIN|   598           0.00049       -0.34375       -0.15625       -0.15625
 BRILLOUIN|   599           0.00049       -0.34375       -0.15625       -0.09375
 BRILLOUIN|   600           0.00049       -0.34375       -0.15625       -0.03125
 BRILLOUIN|   601           0.00049       -0.34375       -0.15625        0.03125
 BRILLOUIN|   602           0.00049       -0.34375       -0.15625        0.09375
 BRILLOUIN|   603           0.00049       -0.34375       -0.15625        0.15625
 BRILLOUIN|   604           0.00049       -0.34375       -0.15625        0.21875
 BRILLOUIN|   605           0.00049       -0.34375       -0.15625        0.28125
 BRILLOUIN|   606           0.00049       -0.34375       -0.15625        0.34375
 BRILLOUIN|   607           0.00049       -0.34375       -0.15625        0.40625
 BRILLOUIN|   608           0.00049       -0.34375       -0.15625        0.46875
 BRILLOUIN|   609           0.00049       -0.34375       -0.09375       -0.46875
 BRILLOUIN|   610           0.00049       -0.34375       -0.09375       -0.40625
 BRILLOUIN|   611           0.00049       -0.34375       -0.09375       -0.34375
 BRILLOUIN|   612           0.00049       -0.34375       -0.09375       -0.28125
 BRILLOUIN|   613           0.00049       -0.34375       -0.09375       -0.21875
 BRILLOUIN|   614           0.00049       -0.34375       -0.09375       -0.15625
 BRILLOUIN|   615           0.00049       -0.34375       -0.09375       -0.09375
 BRILLOUIN|   616           0.00049       -0.34375       -0.09375       -0.03125
 BRILLOUIN|   617           0.00049       -0.34375       -0.09375        0.03125
 BRILLOUIN|   618           0.00049       -0.34375       -0.09375        0.09375
 BRILLOUIN|   619           0.00049       -0.34375       -0.09375        0.15625
 BRILLOUIN|   620           0.00049       -0.34375       -0.09375        0.21875
 BRILLOUIN|   621           0.00049       -0.34375       -0.09375        0.28125
 BRILLOUIN|   622           0.00049       -0.34375       -0.09375        0.34375
 BRILLOUIN|   623           0.00049       -0.34375       -0.09375        0.40625
 BRILLOUIN|   624           0.00049       -0.34375       -0.09375        0.46875
 BRILLOUIN|   625           0.00049       -0.34375       -0.03125       -0.46875
 BRILLOUIN|   626           0.00049       -0.34375       -0.03125       -0.40625
 BRILLOUIN|   627           0.00049       -0.34375       -0.03125       -0.34375
 BRILLOUIN|   628           0.00049       -0.34375       -0.03125       -0.28125
 BRILLOUIN|   629           0.00049       -0.34375       -0.03125       -0.21875
 BRILLOUIN|   630           0.00049       -0.34375       -0.03125       -0.15625
 BRILLOUIN|   631           0.00049       -0.34375       -0.03125       -0.09375
 BRILLOUIN|   632           0.00049       -0.34375       -0.03125       -0.03125
 BRILLOUIN|   633           0.00049       -0.34375       -0.03125        0.03125
 BRILLOUIN|   634           0.00049       -0.34375       -0.03125        0.09375
 BRILLOUIN|   635           0.00049       -0.34375       -0.03125        0.15625
 BRILLOUIN|   636           0.00049       -0.34375       -0.03125        0.21875
 BRILLOUIN|   637           0.00049       -0.34375       -0.03125        0.28125
 BRILLOUIN|   638           0.00049       -0.34375       -0.03125        0.34375
 BRILLOUIN|   639           0.00049       -0.34375       -0.03125        0.40625
 BRILLOUIN|   640           0.00049       -0.34375       -0.03125        0.46875
 BRILLOUIN|   641           0.00049       -0.34375        0.03125       -0.46875
 BRILLOUIN|   642           0.00049       -0.34375        0.03125       -0.40625
 BRILLOUIN|   643           0.00049       -0.34375        0.03125       -0.34375
 BRILLOUIN|   644           0.00049       -0.34375        0.03125       -0.28125
 BRILLOUIN|   645           0.00049       -0.34375        0.03125       -0.21875
 BRILLOUIN|   646           0.00049       -0.34375        0.03125       -0.15625
 BRILLOUIN|   647           0.00049       -0.34375        0.03125       -0.09375
 BRILLOUIN|   648           0.00049       -0.34375        0.03125       -0.03125
 BRILLOUIN|   649           0.00049       -0.34375        0.03125        0.03125
 BRILLOUIN|   650           0.00049       -0.34375        0.03125        0.09375
 BRILLOUIN|   651           0.00049       -0.34375        0.03125        0.15625
 BRILLOUIN|   652           0.00049       -0.34375        0.03125        0.21875
 BRILLOUIN|   653           0.00049       -0.34375        0.03125        0.28125
 BRILLOUIN|   654           0.00049       -0.34375        0.03125        0.34375
 BRILLOUIN|   655           0.00049       -0.34375        0.03125        0.40625
 BRILLOUIN|   656           0.00049       -0.34375        0.03125        0.46875
 BRILLOUIN|   657           0.00049       -0.34375        0.09375       -0.46875
 BRILLOUIN|   658           0.00049       -0.34375        0.09375       -0.40625
 BRILLOUIN|   659           0.00049       -0.34375        0.09375       -0.34375
 BRILLOUIN|   660           0.00049       -0.34375        0.09375       -0.28125
 BRILLOUIN|   661           0.00049       -0.34375        0.09375       -0.21875
 BRILLOUIN|   662           0.00049       -0.34375        0.09375       -0.15625
 BRILLOUIN|   663           0.00049       -0.34375        0.09375       -0.09375
 BRILLOUIN|   664           0.00049       -0.34375        0.09375       -0.03125
 BRILLOUIN|   665           0.00049       -0.34375        0.09375        0.03125
 BRILLOUIN|   666           0.00049       -0.34375        0.09375        0.09375
 BRILLOUIN|   667           0.00049       -0.34375        0.09375        0.15625
 BRILLOUIN|   668           0.00049       -0.34375        0.09375        0.21875
 BRILLOUIN|   669           0.00049       -0.34375        0.09375        0.28125
 BRILLOUIN|   670           0.00049       -0.34375        0.09375        0.34375
 BRILLOUIN|   671           0.00049       -0.34375        0.09375        0.40625
 BRILLOUIN|   672           0.00049       -0.34375        0.09375        0.46875
 BRILLOUIN|   673           0.00049       -0.34375        0.15625       -0.46875
 BRILLOUIN|   674           0.00049       -0.34375        0.15625       -0.40625
 BRILLOUIN|   675           0.00049       -0.34375        0.15625       -0.34375
 BRILLOUIN|   676           0.00049       -0.34375        0.15625       -0.28125
 BRILLOUIN|   677           0.00049       -0.34375        0.15625       -0.21875
 BRILLOUIN|   678           0.00049       -0.34375        0.15625       -0.15625
 BRILLOUIN|   679           0.00049       -0.34375        0.15625       -0.09375
 BRILLOUIN|   680           0.00049       -0.34375        0.15625       -0.03125
 BRILLOUIN|   681           0.00049       -0.34375        0.15625        0.03125
 BRILLOUIN|   682           0.00049       -0.34375        0.15625        0.09375
 BRILLOUIN|   683           0.00049       -0.34375        0.15625        0.15625
 BRILLOUIN|   684           0.00049       -0.34375        0.15625        0.21875
 BRILLOUIN|   685           0.00049       -0.34375        0.15625        0.28125
 BRILLOUIN|   686           0.00049       -0.34375        0.15625        0.34375
 BRILLOUIN|   687           0.00049       -0.34375        0.15625        0.40625
 BRILLOUIN|   688           0.00049       -0.34375        0.15625        0.46875
 BRILLOUIN|   689           0.00049       -0.34375        0.21875       -0.46875
 BRILLOUIN|   690           0.00049       -0.34375        0.21875       -0.40625
 BRILLOUIN|   691           0.00049       -0.34375        0.21875       -0.34375
 BRILLOUIN|   692           0.00049       -0.34375        0.21875       -0.28125
 BRILLOUIN|   693           0.00049       -0.34375        0.21875       -0.21875
 BRILLOUIN|   694           0.00049       -0.34375        0.21875       -0.15625
 BRILLOUIN|   695           0.00049       -0.34375        0.21875       -0.09375
 BRILLOUIN|   696           0.00049       -0.34375        0.21875       -0.03125
 BRILLOUIN|   697           0.00049       -0.34375        0.21875        0.03125
 BRILLOUIN|   698           0.00049       -0.34375        0.21875        0.09375
 BRILLOUIN|   699           0.00049       -0.34375        0.21875        0.15625
 BRILLOUIN|   700           0.00049       -0.34375        0.21875        0.21875
 BRILLOUIN|   701           0.00049       -0.34375        0.21875        0.28125
 BRILLOUIN|   702           0.00049       -0.34375        0.21875        0.34375
 BRILLOUIN|   703           0.00049       -0.34375        0.21875        0.40625
 BRILLOUIN|   704           0.00049       -0.34375        0.21875        0.46875
 BRILLOUIN|   705           0.00049       -0.34375        0.28125       -0.46875
 BRILLOUIN|   706           0.00049       -0.34375        0.28125       -0.40625
 BRILLOUIN|   707           0.00049       -0.34375        0.28125       -0.34375
 BRILLOUIN|   708           0.00049       -0.34375        0.28125       -0.28125
 BRILLOUIN|   709           0.00049       -0.34375        0.28125       -0.21875
 BRILLOUIN|   710           0.00049       -0.34375        0.28125       -0.15625
 BRILLOUIN|   711           0.00049       -0.34375        0.28125       -0.09375
 BRILLOUIN|   712           0.00049       -0.34375        0.28125       -0.03125
 BRILLOUIN|   713           0.00049       -0.34375        0.28125        0.03125
 BRILLOUIN|   714           0.00049       -0.34375        0.28125        0.09375
 BRILLOUIN|   715           0.00049       -0.34375        0.28125        0.15625
 BRILLOUIN|   716           0.00049       -0.34375        0.28125        0.21875
 BRILLOUIN|   717           0.00049       -0.34375        0.28125        0.28125
 BRILLOUIN|   718           0.00049       -0.34375        0.28125        0.34375
 BRILLOUIN|   719           0.00049       -0.34375        0.28125        0.40625
 BRILLOUIN|   720           0.00049       -0.34375        0.28125        0.46875
 BRILLOUIN|   721           0.00049       -0.34375        0.34375       -0.46875
 BRILLOUIN|   722           0.00049       -0.34375        0.34375       -0.40625
 BRILLOUIN|   723           0.00049       -0.34375        0.34375       -0.34375
 BRILLOUIN|   724           0.00049       -0.34375        0.34375       -0.28125
 BRILLOUIN|   725           0.00049       -0.34375        0.34375       -0.21875
 BRILLOUIN|   726           0.00049       -0.34375        0.34375       -0.15625
 BRILLOUIN|   727           0.00049       -0.34375        0.34375       -0.09375
 BRILLOUIN|   728           0.00049       -0.34375        0.34375       -0.03125
 BRILLOUIN|   729           0.00049       -0.34375        0.34375        0.03125
 BRILLOUIN|   730           0.00049       -0.34375        0.34375        0.09375
 BRILLOUIN|   731           0.00049       -0.34375        0.34375        0.15625
 BRILLOUIN|   732           0.00049       -0.34375        0.34375        0.21875
 BRILLOUIN|   733           0.00049       -0.34375        0.34375        0.28125
 BRILLOUIN|   734           0.00049       -0.34375        0.34375        0.34375
 BRILLOUIN|   735           0.00049       -0.34375        0.34375        0.40625
 BRILLOUIN|   736           0.00049       -0.34375        0.34375        0.46875
 BRILLOUIN|   737           0.00049       -0.34375        0.40625       -0.46875
 BRILLOUIN|   738           0.00049       -0.34375        0.40625       -0.40625
 BRILLOUIN|   739           0.00049       -0.34375        0.40625       -0.34375
 BRILLOUIN|   740           0.00049       -0.34375        0.40625       -0.28125
 BRILLOUIN|   741           0.00049       -0.34375        0.40625       -0.21875
 BRILLOUIN|   742           0.00049       -0.34375        0.40625       -0.15625
 BRILLOUIN|   743           0.00049       -0.34375        0.40625       -0.09375
 BRILLOUIN|   744           0.00049       -0.34375        0.40625       -0.03125
 BRILLOUIN|   745           0.00049       -0.34375        0.40625        0.03125
 BRILLOUIN|   746           0.00049       -0.34375        0.40625        0.09375
 BRILLOUIN|   747           0.00049       -0.34375        0.40625        0.15625
 BRILLOUIN|   748           0.00049       -0.34375        0.40625        0.21875
 BRILLOUIN|   749           0.00049       -0.34375        0.40625        0.28125
 BRILLOUIN|   750           0.00049       -0.34375        0.40625        0.34375
 BRILLOUIN|   751           0.00049       -0.34375        0.40625        0.40625
 BRILLOUIN|   752           0.00049       -0.34375        0.40625        0.46875
 BRILLOUIN|   753           0.00049       -0.34375        0.46875       -0.46875
 BRILLOUIN|   754           0.00049       -0.34375        0.46875       -0.40625
 BRILLOUIN|   755           0.00049       -0.34375        0.46875       -0.34375
 BRILLOUIN|   756           0.00049       -0.34375        0.46875       -0.28125
 BRILLOUIN|   757           0.00049       -0.34375        0.46875       -0.21875
 BRILLOUIN|   758           0.00049       -0.34375        0.46875       -0.15625
 BRILLOUIN|   759           0.00049       -0.34375        0.46875       -0.09375
 BRILLOUIN|   760           0.00049       -0.34375        0.46875       -0.03125
 BRILLOUIN|   761           0.00049       -0.34375        0.46875        0.03125
 BRILLOUIN|   762           0.00049       -0.34375        0.46875        0.09375
 BRILLOUIN|   763           0.00049       -0.34375        0.46875        0.15625
 BRILLOUIN|   764           0.00049       -0.34375        0.46875        0.21875
 BRILLOUIN|   765           0.00049       -0.34375        0.46875        0.28125
 BRILLOUIN|   766           0.00049       -0.34375        0.46875        0.34375
 BRILLOUIN|   767           0.00049       -0.34375        0.46875        0.40625
 BRILLOUIN|   768           0.00049       -0.34375        0.46875        0.46875
 BRILLOUIN|   769           0.00049       -0.28125       -0.46875       -0.46875
 BRILLOUIN|   770           0.00049       -0.28125       -0.46875       -0.40625
 BRILLOUIN|   771           0.00049       -0.28125       -0.46875       -0.34375
 BRILLOUIN|   772           0.00049       -0.28125       -0.46875       -0.28125
 BRILLOUIN|   773           0.00049       -0.28125       -0.46875       -0.21875
 BRILLOUIN|   774           0.00049       -0.28125       -0.46875       -0.15625
 BRILLOUIN|   775           0.00049       -0.28125       -0.46875       -0.09375
 BRILLOUIN|   776           0.00049       -0.28125       -0.46875       -0.03125
 BRILLOUIN|   777           0.00049       -0.28125       -0.46875        0.03125
 BRILLOUIN|   778           0.00049       -0.28125       -0.46875        0.09375
 BRILLOUIN|   779           0.00049       -0.28125       -0.46875        0.15625
 BRILLOUIN|   780           0.00049       -0.28125       -0.46875        0.21875
 BRILLOUIN|   781           0.00049       -0.28125       -0.46875        0.28125
 BRILLOUIN|   782           0.00049       -0.28125       -0.46875        0.34375
 BRILLOUIN|   783           0.00049       -0.28125       -0.46875        0.40625
 BRILLOUIN|   784           0.00049       -0.28125       -0.46875        0.46875
 BRILLOUIN|   785           0.00049       -0.28125       -0.40625       -0.46875
 BRILLOUIN|   786           0.00049       -0.28125       -0.40625       -0.40625
 BRILLOUIN|   787           0.00049       -0.28125       -0.40625       -0.34375
 BRILLOUIN|   788           0.00049       -0.28125       -0.40625       -0.28125
 BRILLOUIN|   789           0.00049       -0.28125       -0.40625       -0.21875
 BRILLOUIN|   790           0.00049       -0.28125       -0.40625       -0.15625
 BRILLOUIN|   791           0.00049       -0.28125       -0.40625       -0.09375
 BRILLOUIN|   792           0.00049       -0.28125       -0.40625       -0.03125
 BRILLOUIN|   793           0.00049       -0.28125       -0.40625        0.03125
 BRILLOUIN|   794           0.00049       -0.28125       -0.40625        0.09375
 BRILLOUIN|   795           0.00049       -0.28125       -0.40625        0.15625
 BRILLOUIN|   796           0.00049       -0.28125       -0.40625        0.21875
 BRILLOUIN|   797           0.00049       -0.28125       -0.40625        0.28125
 BRILLOUIN|   798           0.00049       -0.28125       -0.40625        0.34375
 BRILLOUIN|   799           0.00049       -0.28125       -0.40625        0.40625
 BRILLOUIN|   800           0.00049       -0.28125       -0.40625        0.46875
 BRILLOUIN|   801           0.00049       -0.28125       -0.34375       -0.46875
 BRILLOUIN|   802           0.00049       -0.28125       -0.34375       -0.40625
 BRILLOUIN|   803           0.00049       -0.28125       -0.34375       -0.34375
 BRILLOUIN|   804           0.00049       -0.28125       -0.34375       -0.28125
 BRILLOUIN|   805           0.00049       -0.28125       -0.34375       -0.21875
 BRILLOUIN|   806           0.00049       -0.28125       -0.34375       -0.15625
 BRILLOUIN|   807           0.00049       -0.28125       -0.34375       -0.09375
 BRILLOUIN|   808           0.00049       -0.28125       -0.34375       -0.03125
 BRILLOUIN|   809           0.00049       -0.28125       -0.34375        0.03125
 BRILLOUIN|   810           0.00049       -0.28125       -0.34375        0.09375
 BRILLOUIN|   811           0.00049       -0.28125       -0.34375        0.15625
 BRILLOUIN|   812           0.00049       -0.28125       -0.34375        0.21875
 BRILLOUIN|   813           0.00049       -0.28125       -0.34375        0.28125
 BRILLOUIN|   814           0.00049       -0.28125       -0.34375        0.34375
 BRILLOUIN|   815           0.00049       -0.28125       -0.34375        0.40625
 BRILLOUIN|   816           0.00049       -0.28125       -0.34375        0.46875
 BRILLOUIN|   817           0.00049       -0.28125       -0.28125       -0.46875
 BRILLOUIN|   818           0.00049       -0.28125       -0.28125       -0.40625
 BRILLOUIN|   819           0.00049       -0.28125       -0.28125       -0.34375
 BRILLOUIN|   820           0.00049       -0.28125       -0.28125       -0.28125
 BRILLOUIN|   821           0.00049       -0.28125       -0.28125       -0.21875
 BRILLOUIN|   822           0.00049       -0.28125       -0.28125       -0.15625
 BRILLOUIN|   823           0.00049       -0.28125       -0.28125       -0.09375
 BRILLOUIN|   824           0.00049       -0.28125       -0.28125       -0.03125
 BRILLOUIN|   825           0.00049       -0.28125       -0.28125        0.03125
 BRILLOUIN|   826           0.00049       -0.28125       -0.28125        0.09375
 BRILLOUIN|   827           0.00049       -0.28125       -0.28125        0.15625
 BRILLOUIN|   828           0.00049       -0.28125       -0.28125        0.21875
 BRILLOUIN|   829           0.00049       -0.28125       -0.28125        0.28125
 BRILLOUIN|   830           0.00049       -0.28125       -0.28125        0.34375
 BRILLOUIN|   831           0.00049       -0.28125       -0.28125        0.40625
 BRILLOUIN|   832           0.00049       -0.28125       -0.28125        0.46875
 BRILLOUIN|   833           0.00049       -0.28125       -0.21875       -0.46875
 BRILLOUIN|   834           0.00049       -0.28125       -0.21875       -0.40625
 BRILLOUIN|   835           0.00049       -0.28125       -0.21875       -0.34375
 BRILLOUIN|   836           0.00049       -0.28125       -0.21875       -0.28125
 BRILLOUIN|   837           0.00049       -0.28125       -0.21875       -0.21875
 BRILLOUIN|   838           0.00049       -0.28125       -0.21875       -0.15625
 BRILLOUIN|   839           0.00049       -0.28125       -0.21875       -0.09375
 BRILLOUIN|   840           0.00049       -0.28125       -0.21875       -0.03125
 BRILLOUIN|   841           0.00049       -0.28125       -0.21875        0.03125
 BRILLOUIN|   842           0.00049       -0.28125       -0.21875        0.09375
 BRILLOUIN|   843           0.00049       -0.28125       -0.21875        0.15625
 BRILLOUIN|   844           0.00049       -0.28125       -0.21875        0.21875
[...]
 PW_GRID| spherical cutoff:                                                   NO
 PW_GRID|   Bounds   1             -4       4                Points:           9
 PW_GRID|   Bounds   2             -4       4                Points:           9
 PW_GRID|   Bounds   3             -4       4                Points:           9
 PW_GRID| Volume element (a.u.^3)  0.3746         Volume (a.u.^3)       273.1028
 PW_GRID| Grid span                                                    FULLSPACE
 PW_GRID|   Distribution                         Average         Max         Min
 PW_GRID|   G-Vectors                                5.7         135           0
 PW_GRID|   G-Rays                                   0.6          15           0
 PW_GRID|   Real Space Points                        5.7          18           0

 POISSON| Solver                                                        PERIODIC
 POISSON| Periodicity                                                        XYZ

 RS_GRID| Information for grid number                                          1
 RS_GRID|   Bounds   1            -27      26                Points:          54
 RS_GRID|   Bounds   2            -27      26                Points:          54
 RS_GRID|   Bounds   3            -27      26                Points:          54
 RS_GRID| Real space fully replicated
 RS_GRID| Group size                                                           1

 RS_GRID| Information for grid number                                          2
 RS_GRID|   Bounds   1            -15      14                Points:          30
 RS_GRID|   Bounds   2            -15      14                Points:          30
 RS_GRID|   Bounds   3            -15      14                Points:          30
 RS_GRID| Real space fully replicated
 RS_GRID| Group size                                                           1

 RS_GRID| Information for grid number                                          3
 RS_GRID|   Bounds   1             -9       8                Points:          18
 RS_GRID|   Bounds   2             -9       8                Points:          18
 RS_GRID|   Bounds   3             -9       8                Points:          18
 RS_GRID| Real space fully replicated
 RS_GRID| Group size                                                           1

 RS_GRID| Information for grid number                                          4
 RS_GRID|   Bounds   1             -4       4                Points:           9
 RS_GRID|   Bounds   2             -4       4                Points:           9
 RS_GRID|   Bounds   3             -4       4                Points:           9
 RS_GRID| Real space fully replicated
 RS_GRID| Group size                                                           1

 Number of electrons:                                                         18
 Number of occupied orbitals:                                                  9
 Number of molecular orbitals:                                                38

 Number of orbital functions:                                                 38
 Number of independent orbital functions:                                     38

 Extrapolation method: initial_guess

 Atomic guess: The first density matrix is obtained in terms of atomic orbitals
               and electronic configurations assigned to each atomic kind

 Guess for atomic kind: Ga

 Electronic structure
    Total number of core electrons                                         18.00
    Total number of valence electrons                                      13.00
    Total number of electrons                                              31.00
    Multiplicity                                                   not specified
    S   [  2.00  2.00  2.00] 2.00
    P   [  6.00  6.00] 1.00
    D     10.00


 *******************************************************************************
                  Iteration          Convergence                     Energy [au]
 *******************************************************************************
                          1         22.2556                     -44.070693190495
                          2         1.97727                     -73.030231986400
                          3        0.308616                     -74.140417366898
                          4        0.576242E-01                 -74.147752273750
                          5        0.111000E-01                 -74.147966189327
                          6        0.639060E-02                 -74.147973036212
                          7        0.483133E-03                 -74.147976322398
                          8        0.245920E-05                 -74.147976336744
                          9        0.114481E-05                 -74.147976336744
                         10        0.321028E-07                 -74.147976336744

 Energy components [Hartree]           Total Energy ::          -74.147976336744
                                        Band Energy ::           -7.333714662737
                                     Kinetic Energy ::           99.583383713819
                                   Potential Energy ::         -173.731360050563
                                      Virial (-V/T) ::            1.744581812462
                                        Core Energy ::         -134.263311606912
                                          XC Energy ::           -9.782752774308
                                     Coulomb Energy ::           69.898088044476
                       Total Pseudopotential Energy ::         -233.911899779044
                       Local Pseudopotential Energy ::         -163.426351451087
                    Nonlocal Pseudopotential Energy ::          -70.485548327957
                                        Confinement ::            0.652044583131

 Orbital energies  State     L     Occupation   Energy[a.u.]          Energy[eV]

                       1     0          2.000      -0.305869           -8.323110

                       1     1          1.000      -0.061236           -1.666328

                       1     2         10.000      -0.666074          -18.124798


 Total Electron Density at R=0:                                         0.000028

 Guess for atomic kind: P

 Electronic structure
    Total number of core electrons                                         10.00
    Total number of valence electrons                                       5.00
    Total number of electrons                                              15.00
    Multiplicity                                                   not specified
    S   [  2.00  2.00] 2.00
    P   [  6.00] 3.00


 *******************************************************************************
                  Iteration          Convergence                     Energy [au]
 *******************************************************************************
                          1        0.582540E-01                  -6.291993940457
                          2        0.291791E-01                  -6.293593760388
                          3        0.376551E-04                  -6.294148612271
                          4        0.154640E-05                  -6.294148613018
                          5        0.750877E-06                  -6.294148613019

 Energy components [Hartree]           Total Energy ::           -6.294148613019
                                        Band Energy ::           -1.506717525801
                                     Kinetic Energy ::            2.396081580762
                                   Potential Energy ::           -8.690230193781
                                      Virial (-V/T) ::            3.626850714748
                                        Core Energy ::          -10.067513517919
                                          XC Energy ::           -1.458300709696
                                     Coulomb Energy ::            5.231665614597
                       Total Pseudopotential Energy ::          -12.524622168239
                       Local Pseudopotential Energy ::          -13.871597417631
                    Nonlocal Pseudopotential Energy ::            1.346975249392
                                        Confinement ::            0.610270695572

 Orbital energies  State     L     Occupation   Energy[a.u.]          Energy[eV]

                       1     0          2.000      -0.488396          -13.289919

                       1     1          3.000      -0.176642           -4.806677


 Total Electron Density at R=0:                                         0.000173
 Re-scaling the density matrix to get the right number of electrons
                  # Electrons              Trace(P)               Scaling factor
                           18                18.000                        1.000


 SCF WAVEFUNCTION OPTIMIZATION

  Step     Update method      Time    Convergence         Total energy    Change
  ------------------------------------------------------------------------------
     1 NoMix/Diag. 0.10E+00   28.1     2.55105183       -80.6092805760 -8.06E+01
     2 Broy./Diag. 0.10E+00   28.3     0.18870328       -80.3903616623  2.19E-01
     3 Broy./Diag. 0.10E+00   27.8     0.67974932       -80.2771991183  1.13E-01
     4 Broy./Diag. 0.10E+00   28.4     0.18014082       -80.4135851443 -1.36E-01
     5 Broy./Diag. 0.10E+00   28.6     0.09647666       -80.5260344470 -1.12E-01
     6 Broy./Diag. 0.10E+00   28.6     0.03010925       -80.4737139975  5.23E-02
     7 Broy./Diag. 0.10E+00   27.9     0.00715410       -80.4614337736  1.23E-02
     8 Broy./Diag. 0.10E+00   28.2     0.01210603       -80.4626009477 -1.17E-03
     9 Broy./Diag. 0.10E+00   28.2     0.01575059       -80.4567375229  5.86E-03
    10 Broy./Diag. 0.10E+00   28.4     0.00144603       -80.4635066836 -6.77E-03
    11 Broy./Diag. 0.10E+00   27.5     0.00333125       -80.4629491798  5.58E-04
    12 Broy./Diag. 0.10E+00   27.1     0.00085216       -80.4639533421 -1.00E-03
    13 Broy./Diag. 0.10E+00   26.9     0.00035804       -80.4634515776  5.02E-04
    14 Broy./Diag. 0.10E+00   28.1     0.00130839       -80.4635848592 -1.33E-04
    15 Broy./Diag. 0.10E+00   27.5     0.00025489       -80.4637693662 -1.85E-04
    16 Broy./Diag. 0.10E+00   28.0     0.00019951       -80.4637815773 -1.22E-05
    17 Broy./Diag. 0.10E+00   28.3     0.00010766       -80.4636657674  1.16E-04
    18 Broy./Diag. 0.10E+00   28.8     0.00004061       -80.4636795840 -1.38E-05
    19 Broy./Diag. 0.10E+00   28.2     0.00002541       -80.4636095248  7.01E-05
    20 Broy./Diag. 0.10E+00   28.1     0.00000313       -80.4636288364 -1.93E-05
    21 Broy./Diag. 0.10E+00   28.4     0.00000286       -80.4636220438  6.79E-06
    22 Broy./Diag. 0.10E+00   28.7     0.00000385       -80.4636273817 -5.34E-06
    23 Broy./Diag. 0.10E+00   28.2     0.00000168       -80.4636266826  6.99E-07
    24 Broy./Diag. 0.10E+00   27.9     0.00000222       -80.4636326690 -5.99E-06
    25 Broy./Diag. 0.10E+00   28.2     0.00000363       -80.4636455822 -1.29E-05
    26 Broy./Diag. 0.10E+00   28.2     0.00000058       -80.4636488586 -3.28E-06
    27 Broy./Diag. 0.10E+00   28.4     0.00000134       -80.4636526411 -3.78E-06
    28 Broy./Diag. 0.10E+00   26.5     0.00000192       -80.4636570641 -4.42E-06
    29 Broy./Diag. 0.10E+00   27.3     0.00000029       -80.4636566059  4.58E-07
    30 Broy./Diag. 0.10E+00   27.7     0.00000028       -80.4636581823 -1.58E-06
    31 Broy./Diag. 0.10E+00   28.0     0.00000016       -80.4636582497 -6.74E-08
    32 Broy./Diag. 0.10E+00   28.3     0.00000014       -80.4636580561  1.94E-07
    33 Broy./Diag. 0.10E+00   27.8     0.00000008       -80.4636580975 -4.14E-08
    34 Broy./Diag. 0.10E+00   28.2     0.00000003       -80.4636579175  1.80E-07
    35 Broy./Diag. 0.10E+00   27.7     0.00000005       -80.4636577433  1.74E-07
    36 Broy./Diag. 0.10E+00   28.6     0.00000004       -80.4636574541  2.89E-07
    37 Broy./Diag. 0.10E+00   27.8     0.00000004       -80.4636574109  4.32E-08
    38 Broy./Diag. 0.10E+00   28.4     0.00000006       -80.4636576432 -2.32E-07
    39 Broy./Diag. 0.10E+00   28.1     7.6217E-09       -80.4636578025 -1.59E-07
    40 Broy./Diag. 0.10E+00   28.6     0.00000001       -80.4636578519 -4.94E-08
    41 Broy./Diag. 0.10E+00   27.5     0.00000003       -80.4636578445  7.35E-09
    42 Broy./Diag. 0.10E+00   27.7     0.00000001       -80.4636578450 -4.40E-10
    43 Broy./Diag. 0.10E+00   26.6     3.4134E-09       -80.4636578591 -1.41E-08
    44 Broy./Diag. 0.10E+00   28.4     4.2353E-09       -80.4636578554  3.71E-09
    45 Broy./Diag. 0.10E+00   28.1     2.5813E-09       -80.4636578647 -9.31E-09
    46 Broy./Diag. 0.10E+00   27.6     1.4083E-09       -80.4636578638  8.46E-10
    47 Broy./Diag. 0.10E+00   28.1     1.0502E-09       -80.4636578655 -1.63E-09
    48 Broy./Diag. 0.10E+00   28.1     1.5919E-09       -80.4636578663 -8.82E-10
    49 Broy./Diag. 0.10E+00   28.9     1.1293E-09       -80.4636578691 -2.80E-09
    50 Broy./Diag. 0.10E+00   28.3     5.3365E-10       -80.4636578686  5.89E-10

  *** SCF run converged in    50 steps ***


  Electronic density on regular grids:        -14.4012731353        3.5987268647
  Core density on regular grids:                5.0000000000      -13.0000000000
  Hard and soft densities (Lebedev):          -23.9097753780      -20.3110485158
  Total Rho_soft + Rho1_hard - Rho1_soft      -17.9999999974
  Total charge density (r-space):             -12.9999999974
  Total Rho_soft + Rho0_soft (g-space):        -0.0000000942

  Overlap energy of the core charge distribution:               0.00197715457747
  Self energy of the core charge distribution:               -113.69477796600728
  Core Hamiltonian energy:                                     33.75100025719889
  Hartree energy:                                              44.97826308237519
  Exchange-correlation energy:                                 -7.19911246886377

  GAPW| Exc from hard and soft atomic rho1:                    -4.86192900525572
  GAPW| local Eh = 1 center integrals:                        -33.43907892257542

  Total energy:                                               -80.46365786855064

 !-----------------------------------------------------------------------------!
                     Mulliken Population Analysis

 #  Atom  Element  Kind  Atomic population                           Net charge
       1     Ga       1         12.830708                              0.169292
       2     P        2          5.169292                             -0.169292
 # Total charge                             18.000000                  0.000000

 !-----------------------------------------------------------------------------!

 !-----------------------------------------------------------------------------!
                           Hirshfeld Charges

  #Atom  Element  Kind  Ref Charge     Population                    Net charge
      1       Ga     1      13.000         14.153                        -1.153
      2       P      2       5.000          3.847                         1.153

  Total Charge                                                            0.000
 !-----------------------------------------------------------------------------!
  
 -------------------------------------------------------------------------------
 -                                                                             -
 -                          BANDSTRUCTURE CALCULATION                          -
 -                                                                             -
 -------------------------------------------------------------------------------
  
 Number of occupied molecular orbitals (MOs) = Number of occupied bands        9
 Number of unoccupied (= virtual) MOs = Number of unoccupied bands            29
 Number of Gaussian basis functions for MOs                                   38
 Number of cells considered in the DFT calculation                          1061
 Number of cells for G, , W,                                              3375
 Number of special k-points for the bandstructure                              4
 Number of k-points for the bandstructure                                   4190
  
 -------------------------------------------------------------------------------
 -                                                                             -
 -                              GW CALCULATION                                 -
 -                                                                             -
 -------------------------------------------------------------------------------
  
 Input: Number of time/freq. points                                            5
 Input: Filter threshold for sparse tensor operations                    1.0E-09
 Apply Hedin shift                                                             F
  
 Number of auxiliary Gaussian basis functions for , , W                     36
 Cutoff radius for the truncated Coulomb operator in ^x:                 23.6 
 Cutoff radius for the truncated Coulomb operator in RI metric:            7.0 
 Regularization parameter of RI                                          1.0E-02
 Lattice sum size for V(k):                                                    3
  
 K-point mesh 1 for , , W                                           16  16  16
 K-point mesh 2 for , , W (for k-point extrapolation of W)          32  32  32
 Approximate the k-point extrapolation                                         F
 Radius of atomic orbitals                                                10.5 
 Radius of RI functions                                                    6.4 
 Number of cells for 3c integrals                                           1060
 Number of cell pairs for 3c integrals                                    122251
 
 Input: Available memory per MPI process                                120.0 GB
 Used memory per MPI process before GW run                                0.9 GB
 Memory of three-center integrals                                        50.8 GB
 Group size for tensor operations                                              1
 Number of cells R                                                         7724
 Min. abs. eigenvalue of RI metric matrix M(k)                           1.7E-04
 Max. abs. eigenvalue of RI metric matrix M(k)                           1.3E+02
 Max. condition number of M(k)                                           6.1E+06
 
 SCF direct band gap (eV)                                                  -0.31
 Max. SCF eigval diff. (eV)                                               153.71
 E-Range for minimax grid                                                -501.35
 Number of Pad parameters for analytic continuation:                          5
 

 *******************************************************************************
 *   ___                                                                       *
 *  /   \                                                                      *
 * [ABORT]                                                                     *
 *  \___/                             CPASSERT failed                          *
 *    |                                                                        *
 *  O/|                                                                        *
 * /| |                                                                        *
 * / \                                                         mp2_grids.F:828 *
 *******************************************************************************


 ===== Routine Calling Stack ===== 

            8 get_l_sq_wghts_cos_tf_t_to_w
            7 setup_time_and_frequency_minimax_grid
            6 create_and_init_bs_env_for_gw
            5 gw
            4 post_scf_bandstructure
            3 qs_energies_properties
            2 qs_energies
            1 CP2K
