SIRIUS 7.5.2, git hash: https://api.github.com/repos/electronic-structure/SIRIUS/git/ref/tags/v7.5.2
 DBCSR| CPU Multiplication driver                                           XSMM (U)
 DBCSR| Multrec recursion limit                                              512 (U)
 DBCSR| Multiplication stack size                                           1000 (D)
 DBCSR| Maximum elements for images                                    UNLIMITED (U)
 DBCSR| Multiplicative factor virtual images                                   1 (U)
 DBCSR| Use multiplication densification                                       T (D)
 DBCSR| Multiplication size stacks                                             3 (U)
 DBCSR| Use memory pool for CPU allocation                                     F (U)
 DBCSR| Number of 3D layers                                               SINGLE (U)
 DBCSR| Use MPI memory allocation                                              F (U)
 DBCSR| Use RMA algorithm                                                      F (U)
 DBCSR| Use Communication thread                                               T (U)
 DBCSR| Communication thread load                                             30 (D)
 DBCSR| MPI: My process id                                                     0
 DBCSR| MPI: Number of processes                                             128
 DBCSR| OMP: Current number of threads                                        16
 DBCSR| OMP: Max number of threads                                            16
 DBCSR| Split modifier for TAS multiplication algorithm                  1.0E+00 (U)


  **** **** ******  **  PROGRAM STARTED AT               2025-02-18 07:37:18.168
 ***** ** ***  *** **   PROGRAM STARTED ON                n2lcn0103.ab2021.local
 **    ****   ******    PROGRAM STARTED BY                              metdyn02
 ***** **    ** ** **   PROGRAM PROCESS ID                               1442257
  **** **  *******  **  PROGRAM STARTED IN /scratch/hpc-prf-metdyn/metdyn02_Remi
                                           /08_3D/05_AlP

 CP2K| version string:                 CP2K version 2025.1 (Development Version)
 CP2K| source code revision number:                                  git:a2ea924
 CP2K| cp2kflags: omp libint fftw3 libxc libgrpp elpa parallel scalapack mpi_f08
 CP2K|             cosma xsmm plumed2 spglib sirius libvori libbqb libvdwxc hdf5
 CP2K| is freely available from                            https://www.cp2k.org/
 CP2K| Program compiled at                          Sat Feb  1 00:09:14 CET 2025
 CP2K| Program compiled on                                              n2login1
 CP2K| Program compiled for                                                local
 CP2K| Data directory path    /opt/software/pc2/EB-SW/software/CP2K/2024.1-foss-
 CP2K| Input file name                                                    GW.inp

 GLOBAL| Force Environment number                                              1
 GLOBAL| Basis set file name            /scratch/hpc-prf-metdyn/metdyn02_Remi/BA
 GLOBAL| Potential file name            /pc2/groups/hpc-prf-metdyn/metdyn02_Remi
 GLOBAL| MM Potential file name                                     MM_POTENTIAL
 GLOBAL| Coordinate file name                                      __STD_INPUT__
 GLOBAL| Method name                                                        CP2K
 GLOBAL| Project name                                                        AlP
 GLOBAL| Run type                                                         ENERGY
 GLOBAL| FFT library                                                       FFTW3
 GLOBAL| Diagonalization library                                            ELPA
 GLOBAL| DGEMM library                                                      BLAS
 GLOBAL| Minimum number of eigenvectors for ELPA usage                        16
 GLOBAL| Orthonormality check for eigenvectors                          DISABLED
 GLOBAL| Matrix multiplication library                                     COSMA
 GLOBAL| All-to-all communication in single precision                          F
 GLOBAL| FFTs using library dependent lengths                                  F
 GLOBAL| Grid backend                                                       AUTO
 GLOBAL| Global print level                                               MEDIUM
 GLOBAL| MPI I/O enabled                                                       T
 GLOBAL| Total number of message passing processes                           128
 GLOBAL| Number of threads for this process                                   16
 GLOBAL| This output is from process                                           0
 GLOBAL| OpenMP stack size per thread (OMP_STACKSIZE)                    default
 GLOBAL| CPU model name                          AMD EPYC 7763 64-Core Processor
 GLOBAL| CPUID                                                              1002

 MEMORY| system memory details [Kb]
 MEMORY|                        rank 0           min           max       average
 MEMORY| MemTotal           1056622248    1056622244    1056622248    1056622247
 MEMORY| MemFree            1040879904    1040879904    1044545260    1043448028
 MEMORY| Buffers                105344         29900        292200        179601
 MEMORY| Cached                8298264       4675024       8298264       5782243
 MEMORY| Slab                  1949268       1683792       2091120       1886703
 MEMORY| SReclaimable           355272        249768        392108        300480
 MEMORY| MemLikelyFree      1049638784    1049507092    1050277636    1049710353


 *** Fundamental physical constants (SI units) ***

 *** Literature: B. J. Mohr and B. N. Taylor,
 ***             CODATA recommended values of the fundamental physical
 ***             constants: 2006, Web Version 5.1
 ***             http://physics.nist.gov/constants

 Speed of light in vacuum [m/s]                             2.99792458000000E+08
 Magnetic constant or permeability of vacuum [N/A**2]       1.25663706143592E-06
 Electric constant or permittivity of vacuum [F/m]          8.85418781762039E-12
 Planck constant (h) [J*s]                                  6.62606896000000E-34
 Planck constant (h-bar) [J*s]                              1.05457162825177E-34
 Elementary charge [C]                                      1.60217648700000E-19
 Electron mass [kg]                                         9.10938215000000E-31
 Electron g factor [ ]                                     -2.00231930436220E+00
 Proton mass [kg]                                           1.67262163700000E-27
 Fine-structure constant                                    7.29735253760000E-03
 Rydberg constant [1/m]                                     1.09737315685270E+07
 Avogadro constant [1/mol]                                  6.02214179000000E+23
 Boltzmann constant [J/K]                                   1.38065040000000E-23
 Atomic mass unit [kg]                                      1.66053878200000E-27
 Bohr radius [m]                                            5.29177208590000E-11

 *** Conversion factors ***

 [u] -> [a.u.]                                              1.82288848426455E+03
 [Angstrom] -> [Bohr] = [a.u.]                              1.88972613288564E+00
 [a.u.] = [Bohr] -> [Angstrom]                              5.29177208590000E-01
 [a.u.] -> [s]                                              2.41888432650478E-17
 [a.u.] -> [fs]                                             2.41888432650478E-02
 [a.u.] -> [J]                                              4.35974393937059E-18
 [a.u.] -> [N]                                              8.23872205491840E-08
 [a.u.] -> [K]                                              3.15774647902944E+05
 [a.u.] -> [kJ/mol]                                         2.62549961709828E+03
 [a.u.] -> [kcal/mol]                                       6.27509468713739E+02
 [a.u.] -> [Pa]                                             2.94210107994716E+13
 [a.u.] -> [bar]                                            2.94210107994716E+08
 [a.u.] -> [atm]                                            2.90362800883016E+08
 [a.u.] -> [eV]                                             2.72113838565563E+01
 [a.u.] -> [Hz]                                             6.57968392072181E+15
 [a.u.] -> [1/cm] (wave numbers)                            2.19474631370540E+05
 [a.u./Bohr**2] -> [1/cm]                                   5.14048714338585E+03
 

 CELL_TOP| Volume [angstrom^3]:                                        40.692834
 CELL_TOP| Vector a [angstrom     2.730     0.000     2.730   |a| =     3.860803
 CELL_TOP| Vector b [angstrom     2.730     2.730     0.000   |b| =     3.860803
 CELL_TOP| Vector c [angstrom     0.000     2.730     2.730   |c| =     3.860803
 CELL_TOP| Angle (b,c), alpha [degree]:                                60.000000
 CELL_TOP| Angle (a,c), beta  [degree]:                                60.000000
 CELL_TOP| Angle (a,b), gamma [degree]:                                60.000000
 CELL_TOP| Numerically orthorhombic:                                          NO
 CELL_TOP| Periodicity                                                       XYZ

 GENERATE|  Preliminary Number of Bonds generated:                             0
 GENERATE|  Achieved consistency in connectivity generation.

 CELL| Volume [angstrom^3]:                                            40.692834
 CELL| Vector a [angstrom]:       2.730     0.000     2.730   |a| =     3.860803
 CELL| Vector b [angstrom]:       2.730     2.730     0.000   |b| =     3.860803
 CELL| Vector c [angstrom]:       0.000     2.730     2.730   |c| =     3.860803
 CELL| Angle (b,c), alpha [degree]:                                    60.000000
 CELL| Angle (a,c), beta  [degree]:                                    60.000000
 CELL| Angle (a,b), gamma [degree]:                                    60.000000
 CELL| Numerically orthorhombic:                                              NO
 CELL| Periodicity                                                           XYZ

 CELL_REF| Volume [angstrom^3]:                                        40.692834
 CELL_REF| Vector a [angstrom     2.730     0.000     2.730   |a| =     3.860803
 CELL_REF| Vector b [angstrom     2.730     2.730     0.000   |b| =     3.860803
 CELL_REF| Vector c [angstrom     0.000     2.730     2.730   |c| =     3.860803
 CELL_REF| Angle (b,c), alpha [degree]:                                60.000000
 CELL_REF| Angle (a,c), beta  [degree]:                                60.000000
 CELL_REF| Angle (a,b), gamma [degree]:                                60.000000
 CELL_REF| Numerically orthorhombic:                                          NO
 CELL_REF| Periodicity                                                       XYZ

 *******************************************************************************
                                    Kpoints
 *******************************************************************************
 BRILLOUIN| K-point scheme                                        Monkhorst-Pack
 BRILLOUIN| K-Point grid                                            16   16   16
 BRILLOUIN| Accuracy in Symmetry determination                      0.100000E-05
 BRILLOUIN| K-Point point group symmetrization                               OFF
 BRILLOUIN| Wavefunction type                                            COMPLEX
 BRILLOUIN| List of Kpoints [2 Pi/Bohr]                                     2048
 BRILLOUIN| Number           Weight            X              Y              Z
 BRILLOUIN|     1           0.00049       -0.46875       -0.46875       -0.46875
 BRILLOUIN|     2           0.00049       -0.46875       -0.46875       -0.40625
 BRILLOUIN|     3           0.00049       -0.46875       -0.46875       -0.34375
 BRILLOUIN|     4           0.00049       -0.46875       -0.46875       -0.28125
 BRILLOUIN|     5           0.00049       -0.46875       -0.46875       -0.21875
 BRILLOUIN|     6           0.00049       -0.46875       -0.46875       -0.15625
 BRILLOUIN|     7           0.00049       -0.46875       -0.46875       -0.09375
 BRILLOUIN|     8           0.00049       -0.46875       -0.46875       -0.03125
 BRILLOUIN|     9           0.00049       -0.46875       -0.46875        0.03125
 BRILLOUIN|    10           0.00049       -0.46875       -0.46875        0.09375
 BRILLOUIN|    11           0.00049       -0.46875       -0.46875        0.15625
 BRILLOUIN|    12           0.00049       -0.46875       -0.46875        0.21875
 BRILLOUIN|    13           0.00049       -0.46875       -0.46875        0.28125
 BRILLOUIN|    14           0.00049       -0.46875       -0.46875        0.34375
 BRILLOUIN|    15           0.00049       -0.46875       -0.46875        0.40625
 BRILLOUIN|    16           0.00049       -0.46875       -0.46875        0.46875
 BRILLOUIN|    17           0.00049       -0.46875       -0.40625       -0.46875
 BRILLOUIN|    18           0.00049       -0.46875       -0.40625       -0.40625
 BRILLOUIN|    19           0.00049       -0.46875       -0.40625       -0.34375
 BRILLOUIN|    20           0.00049       -0.46875       -0.40625       -0.28125
 BRILLOUIN|    21           0.00049       -0.46875       -0.40625       -0.21875
 BRILLOUIN|    22           0.00049       -0.46875       -0.40625       -0.15625
 BRILLOUIN|    23           0.00049       -0.46875       -0.40625       -0.09375
 BRILLOUIN|    24           0.00049       -0.46875       -0.40625       -0.03125
 BRILLOUIN|    25           0.00049       -0.46875       -0.40625        0.03125
 BRILLOUIN|    26           0.00049       -0.46875       -0.40625        0.09375
 BRILLOUIN|    27           0.00049       -0.46875       -0.40625        0.15625
 BRILLOUIN|    28           0.00049       -0.46875       -0.40625        0.21875
 BRILLOUIN|    29           0.00049       -0.46875       -0.40625        0.28125
 BRILLOUIN|    30           0.00049       -0.46875       -0.40625        0.34375
 BRILLOUIN|    31           0.00049       -0.46875       -0.40625        0.40625
 BRILLOUIN|    32           0.00049       -0.46875       -0.40625        0.46875
 BRILLOUIN|    33           0.00049       -0.46875       -0.34375       -0.46875
 BRILLOUIN|    34           0.00049       -0.46875       -0.34375       -0.40625
 BRILLOUIN|    35           0.00049       -0.46875       -0.34375       -0.34375
 BRILLOUIN|    36           0.00049       -0.46875       -0.34375       -0.28125
 BRILLOUIN|    37           0.00049       -0.46875       -0.34375       -0.21875
 BRILLOUIN|    38           0.00049       -0.46875       -0.34375       -0.15625
 BRILLOUIN|    39           0.00049       -0.46875       -0.34375       -0.09375
 BRILLOUIN|    40           0.00049       -0.46875       -0.34375       -0.03125
 BRILLOUIN|    41           0.00049       -0.46875       -0.34375        0.03125
 BRILLOUIN|    42           0.00049       -0.46875       -0.34375        0.09375
 BRILLOUIN|    43           0.00049       -0.46875       -0.34375        0.15625
 BRILLOUIN|    44           0.00049       -0.46875       -0.34375        0.21875
 BRILLOUIN|    45           0.00049       -0.46875       -0.34375        0.28125
 BRILLOUIN|    46           0.00049       -0.46875       -0.34375        0.34375
 BRILLOUIN|    47           0.00049       -0.46875       -0.34375        0.40625
 BRILLOUIN|    48           0.00049       -0.46875       -0.34375        0.46875
 BRILLOUIN|    49           0.00049       -0.46875       -0.28125       -0.46875
 BRILLOUIN|    50           0.00049       -0.46875       -0.28125       -0.40625
 BRILLOUIN|    51           0.00049       -0.46875       -0.28125       -0.34375
 BRILLOUIN|    52           0.00049       -0.46875       -0.28125       -0.28125
 BRILLOUIN|    53           0.00049       -0.46875       -0.28125       -0.21875
 BRILLOUIN|    54           0.00049       -0.46875       -0.28125       -0.15625
 BRILLOUIN|    55           0.00049       -0.46875       -0.28125       -0.09375
 BRILLOUIN|    56           0.00049       -0.46875       -0.28125       -0.03125
 BRILLOUIN|    57           0.00049       -0.46875       -0.28125        0.03125
 BRILLOUIN|    58           0.00049       -0.46875       -0.28125        0.09375
 BRILLOUIN|    59           0.00049       -0.46875       -0.28125        0.15625
 BRILLOUIN|    60           0.00049       -0.46875       -0.28125        0.21875
 BRILLOUIN|    61           0.00049       -0.46875       -0.28125        0.28125
 BRILLOUIN|    62           0.00049       -0.46875       -0.28125        0.34375
 BRILLOUIN|    63           0.00049       -0.46875       -0.28125        0.40625
 BRILLOUIN|    64           0.00049       -0.46875       -0.28125        0.46875
 BRILLOUIN|    65           0.00049       -0.46875       -0.21875       -0.46875
 BRILLOUIN|    66           0.00049       -0.46875       -0.21875       -0.40625
 BRILLOUIN|    67           0.00049       -0.46875       -0.21875       -0.34375
 BRILLOUIN|    68           0.00049       -0.46875       -0.21875       -0.28125
 BRILLOUIN|    69           0.00049       -0.46875       -0.21875       -0.21875
 BRILLOUIN|    70           0.00049       -0.46875       -0.21875       -0.15625
 BRILLOUIN|    71           0.00049       -0.46875       -0.21875       -0.09375
 BRILLOUIN|    72           0.00049       -0.46875       -0.21875       -0.03125
 BRILLOUIN|    73           0.00049       -0.46875       -0.21875        0.03125
 BRILLOUIN|    74           0.00049       -0.46875       -0.21875        0.09375
 BRILLOUIN|    75           0.00049       -0.46875       -0.21875        0.15625
 BRILLOUIN|    76           0.00049       -0.46875       -0.21875        0.21875
 BRILLOUIN|    77           0.00049       -0.46875       -0.21875        0.28125
 BRILLOUIN|    78           0.00049       -0.46875       -0.21875        0.34375
 BRILLOUIN|    79           0.00049       -0.46875       -0.21875        0.40625
 BRILLOUIN|    80           0.00049       -0.46875       -0.21875        0.46875
 BRILLOUIN|    81           0.00049       -0.46875       -0.15625       -0.46875
 BRILLOUIN|    82           0.00049       -0.46875       -0.15625       -0.40625
 BRILLOUIN|    83           0.00049       -0.46875       -0.15625       -0.34375
 BRILLOUIN|    84           0.00049       -0.46875       -0.15625       -0.28125
 BRILLOUIN|    85           0.00049       -0.46875       -0.15625       -0.21875
 BRILLOUIN|    86           0.00049       -0.46875       -0.15625       -0.15625
 BRILLOUIN|    87           0.00049       -0.46875       -0.15625       -0.09375
 BRILLOUIN|    88           0.00049       -0.46875       -0.15625       -0.03125
 BRILLOUIN|    89           0.00049       -0.46875       -0.15625        0.03125
 BRILLOUIN|    90           0.00049       -0.46875       -0.15625        0.09375
 BRILLOUIN|    91           0.00049       -0.46875       -0.15625        0.15625
 BRILLOUIN|    92           0.00049       -0.46875       -0.15625        0.21875
 BRILLOUIN|    93           0.00049       -0.46875       -0.15625        0.28125
 BRILLOUIN|    94           0.00049       -0.46875       -0.15625        0.34375
 BRILLOUIN|    95           0.00049       -0.46875       -0.15625        0.40625
 BRILLOUIN|    96           0.00049       -0.46875       -0.15625        0.46875
 BRILLOUIN|    97           0.00049       -0.46875       -0.09375       -0.46875
 BRILLOUIN|    98           0.00049       -0.46875       -0.09375       -0.40625
 BRILLOUIN|    99           0.00049       -0.46875       -0.09375       -0.34375
 BRILLOUIN|   100           0.00049       -0.46875       -0.09375       -0.28125
 BRILLOUIN|   101           0.00049       -0.46875       -0.09375       -0.21875
 BRILLOUIN|   102           0.00049       -0.46875       -0.09375       -0.15625
 BRILLOUIN|   103           0.00049       -0.46875       -0.09375       -0.09375
 BRILLOUIN|   104           0.00049       -0.46875       -0.09375       -0.03125
 BRILLOUIN|   105           0.00049       -0.46875       -0.09375        0.03125
 BRILLOUIN|   106           0.00049       -0.46875       -0.09375        0.09375
 BRILLOUIN|   107           0.00049       -0.46875       -0.09375        0.15625
 BRILLOUIN|   108           0.00049       -0.46875       -0.09375        0.21875
 BRILLOUIN|   109           0.00049       -0.46875       -0.09375        0.28125
 BRILLOUIN|   110           0.00049       -0.46875       -0.09375        0.34375
 BRILLOUIN|   111           0.00049       -0.46875       -0.09375        0.40625
 BRILLOUIN|   112           0.00049       -0.46875       -0.09375        0.46875
 BRILLOUIN|   113           0.00049       -0.46875       -0.03125       -0.46875
 BRILLOUIN|   114           0.00049       -0.46875       -0.03125       -0.40625
 BRILLOUIN|   115           0.00049       -0.46875       -0.03125       -0.34375
 BRILLOUIN|   116           0.00049       -0.46875       -0.03125       -0.28125
 BRILLOUIN|   117           0.00049       -0.46875       -0.03125       -0.21875
 BRILLOUIN|   118           0.00049       -0.46875       -0.03125       -0.15625
 BRILLOUIN|   119           0.00049       -0.46875       -0.03125       -0.09375
 BRILLOUIN|   120           0.00049       -0.46875       -0.03125       -0.03125
 BRILLOUIN|   121           0.00049       -0.46875       -0.03125        0.03125
 BRILLOUIN|   122           0.00049       -0.46875       -0.03125        0.09375
 BRILLOUIN|   123           0.00049       -0.46875       -0.03125        0.15625
 BRILLOUIN|   124           0.00049       -0.46875       -0.03125        0.21875
 BRILLOUIN|   125           0.00049       -0.46875       -0.03125        0.28125
 BRILLOUIN|   126           0.00049       -0.46875       -0.03125        0.34375
 BRILLOUIN|   127           0.00049       -0.46875       -0.03125        0.40625
 BRILLOUIN|   128           0.00049       -0.46875       -0.03125        0.46875
 BRILLOUIN|   129           0.00049       -0.46875        0.03125       -0.46875
 BRILLOUIN|   130           0.00049       -0.46875        0.03125       -0.40625
 BRILLOUIN|   131           0.00049       -0.46875        0.03125       -0.34375
 BRILLOUIN|   132           0.00049       -0.46875        0.03125       -0.28125
 BRILLOUIN|   133           0.00049       -0.46875        0.03125       -0.21875
 BRILLOUIN|   134           0.00049       -0.46875        0.03125       -0.15625
 BRILLOUIN|   135           0.00049       -0.46875        0.03125       -0.09375
 BRILLOUIN|   136           0.00049       -0.46875        0.03125       -0.03125
 BRILLOUIN|   137           0.00049       -0.46875        0.03125        0.03125
 BRILLOUIN|   138           0.00049       -0.46875        0.03125        0.09375
 BRILLOUIN|   139           0.00049       -0.46875        0.03125        0.15625
 BRILLOUIN|   140           0.00049       -0.46875        0.03125        0.21875
 BRILLOUIN|   141           0.00049       -0.46875        0.03125        0.28125
 BRILLOUIN|   142           0.00049       -0.46875        0.03125        0.34375
 BRILLOUIN|   143           0.00049       -0.46875        0.03125        0.40625
 BRILLOUIN|   144           0.00049       -0.46875        0.03125        0.46875
 BRILLOUIN|   145           0.00049       -0.46875        0.09375       -0.46875
 BRILLOUIN|   146           0.00049       -0.46875        0.09375       -0.40625
 BRILLOUIN|   147           0.00049       -0.46875        0.09375       -0.34375
 BRILLOUIN|   148           0.00049       -0.46875        0.09375       -0.28125
 BRILLOUIN|   149           0.00049       -0.46875        0.09375       -0.21875
 BRILLOUIN|   150           0.00049       -0.46875        0.09375       -0.15625
 BRILLOUIN|   151           0.00049       -0.46875        0.09375       -0.09375
 BRILLOUIN|   152           0.00049       -0.46875        0.09375       -0.03125
 BRILLOUIN|   153           0.00049       -0.46875        0.09375        0.03125
 BRILLOUIN|   154           0.00049       -0.46875        0.09375        0.09375
 BRILLOUIN|   155           0.00049       -0.46875        0.09375        0.15625
 BRILLOUIN|   156           0.00049       -0.46875        0.09375        0.21875
 BRILLOUIN|   157           0.00049       -0.46875        0.09375        0.28125
 BRILLOUIN|   158           0.00049       -0.46875        0.09375        0.34375
 BRILLOUIN|   159           0.00049       -0.46875        0.09375        0.40625
 BRILLOUIN|   160           0.00049       -0.46875        0.09375        0.46875
 BRILLOUIN|   161           0.00049       -0.46875        0.15625       -0.46875
 BRILLOUIN|   162           0.00049       -0.46875        0.15625       -0.40625
 BRILLOUIN|   163           0.00049       -0.46875        0.15625       -0.34375
 BRILLOUIN|   164           0.00049       -0.46875        0.15625       -0.28125
 BRILLOUIN|   165           0.00049       -0.46875        0.15625       -0.21875
 BRILLOUIN|   166           0.00049       -0.46875        0.15625       -0.15625
 BRILLOUIN|   167           0.00049       -0.46875        0.15625       -0.09375
 BRILLOUIN|   168           0.00049       -0.46875        0.15625       -0.03125
 BRILLOUIN|   169           0.00049       -0.46875        0.15625        0.03125
 BRILLOUIN|   170           0.00049       -0.46875        0.15625        0.09375
 BRILLOUIN|   171           0.00049       -0.46875        0.15625        0.15625
 BRILLOUIN|   172           0.00049       -0.46875        0.15625        0.21875
 BRILLOUIN|   173           0.00049       -0.46875        0.15625        0.28125
 BRILLOUIN|   174           0.00049       -0.46875        0.15625        0.34375
 BRILLOUIN|   175           0.00049       -0.46875        0.15625        0.40625
 BRILLOUIN|   176           0.00049       -0.46875        0.15625        0.46875
 BRILLOUIN|   177           0.00049       -0.46875        0.21875       -0.46875
 BRILLOUIN|   178           0.00049       -0.46875        0.21875       -0.40625
 BRILLOUIN|   179           0.00049       -0.46875        0.21875       -0.34375
 BRILLOUIN|   180           0.00049       -0.46875        0.21875       -0.28125
 BRILLOUIN|   181           0.00049       -0.46875        0.21875       -0.21875
 BRILLOUIN|   182           0.00049       -0.46875        0.21875       -0.15625
 BRILLOUIN|   183           0.00049       -0.46875        0.21875       -0.09375
 BRILLOUIN|   184           0.00049       -0.46875        0.21875       -0.03125
 BRILLOUIN|   185           0.00049       -0.46875        0.21875        0.03125
 BRILLOUIN|   186           0.00049       -0.46875        0.21875        0.09375
 BRILLOUIN|   187           0.00049       -0.46875        0.21875        0.15625
 BRILLOUIN|   188           0.00049       -0.46875        0.21875        0.21875
 BRILLOUIN|   189           0.00049       -0.46875        0.21875        0.28125
 BRILLOUIN|   190           0.00049       -0.46875        0.21875        0.34375
 BRILLOUIN|   191           0.00049       -0.46875        0.21875        0.40625
 BRILLOUIN|   192           0.00049       -0.46875        0.21875        0.46875
 BRILLOUIN|   193           0.00049       -0.46875        0.28125       -0.46875
 BRILLOUIN|   194           0.00049       -0.46875        0.28125       -0.40625
 BRILLOUIN|   195           0.00049       -0.46875        0.28125       -0.34375
 BRILLOUIN|   196           0.00049       -0.46875        0.28125       -0.28125
 BRILLOUIN|   197           0.00049       -0.46875        0.28125       -0.21875
 BRILLOUIN|   198           0.00049       -0.46875        0.28125       -0.15625
 BRILLOUIN|   199           0.00049       -0.46875        0.28125       -0.09375
 BRILLOUIN|   200           0.00049       -0.46875        0.28125       -0.03125
 BRILLOUIN|   201           0.00049       -0.46875        0.28125        0.03125
 BRILLOUIN|   202           0.00049       -0.46875        0.28125        0.09375
 BRILLOUIN|   203           0.00049       -0.46875        0.28125        0.15625
 BRILLOUIN|   204           0.00049       -0.46875        0.28125        0.21875
 BRILLOUIN|   205           0.00049       -0.46875        0.28125        0.28125
 BRILLOUIN|   206           0.00049       -0.46875        0.28125        0.34375
 BRILLOUIN|   207           0.00049       -0.46875        0.28125        0.40625
 BRILLOUIN|   208           0.00049       -0.46875        0.28125        0.46875
 BRILLOUIN|   209           0.00049       -0.46875        0.34375       -0.46875
 BRILLOUIN|   210           0.00049       -0.46875        0.34375       -0.40625
 BRILLOUIN|   211           0.00049       -0.46875        0.34375       -0.34375
 BRILLOUIN|   212           0.00049       -0.46875        0.34375       -0.28125
 BRILLOUIN|   213           0.00049       -0.46875        0.34375       -0.21875
 BRILLOUIN|   214           0.00049       -0.46875        0.34375       -0.15625
 BRILLOUIN|   215           0.00049       -0.46875        0.34375       -0.09375
 BRILLOUIN|   216           0.00049       -0.46875        0.34375       -0.03125
 BRILLOUIN|   217           0.00049       -0.46875        0.34375        0.03125
 BRILLOUIN|   218           0.00049       -0.46875        0.34375        0.09375
 BRILLOUIN|   219           0.00049       -0.46875        0.34375        0.15625
 BRILLOUIN|   220           0.00049       -0.46875        0.34375        0.21875
 BRILLOUIN|   221           0.00049       -0.46875        0.34375        0.28125
 BRILLOUIN|   222           0.00049       -0.46875        0.34375        0.34375
 BRILLOUIN|   223           0.00049       -0.46875        0.34375        0.40625
 BRILLOUIN|   224           0.00049       -0.46875        0.34375        0.46875
 BRILLOUIN|   225           0.00049       -0.46875        0.40625       -0.46875
 BRILLOUIN|   226           0.00049       -0.46875        0.40625       -0.40625
 BRILLOUIN|   227           0.00049       -0.46875        0.40625       -0.34375
 BRILLOUIN|   228           0.00049       -0.46875        0.40625       -0.28125
 BRILLOUIN|   229           0.00049       -0.46875        0.40625       -0.21875
 BRILLOUIN|   230           0.00049       -0.46875        0.40625       -0.15625
 BRILLOUIN|   231           0.00049       -0.46875        0.40625       -0.09375
 BRILLOUIN|   232           0.00049       -0.46875        0.40625       -0.03125
 BRILLOUIN|   233           0.00049       -0.46875        0.40625        0.03125
 BRILLOUIN|   234           0.00049       -0.46875        0.40625        0.09375
 BRILLOUIN|   235           0.00049       -0.46875        0.40625        0.15625
 BRILLOUIN|   236           0.00049       -0.46875        0.40625        0.21875
 BRILLOUIN|   237           0.00049       -0.46875        0.40625        0.28125
 BRILLOUIN|   238           0.00049       -0.46875        0.40625        0.34375
 BRILLOUIN|   239           0.00049       -0.46875        0.40625        0.40625
 BRILLOUIN|   240           0.00049       -0.46875        0.40625        0.46875
 BRILLOUIN|   241           0.00049       -0.46875        0.46875       -0.46875
 BRILLOUIN|   242           0.00049       -0.46875        0.46875       -0.40625
 BRILLOUIN|   243           0.00049       -0.46875        0.46875       -0.34375
 BRILLOUIN|   244           0.00049       -0.46875        0.46875       -0.28125
 BRILLOUIN|   245           0.00049       -0.46875        0.46875       -0.21875
 BRILLOUIN|   246           0.00049       -0.46875        0.46875       -0.15625
 BRILLOUIN|   247           0.00049       -0.46875        0.46875       -0.09375
 BRILLOUIN|   248           0.00049       -0.46875        0.46875       -0.03125
 BRILLOUIN|   249           0.00049       -0.46875        0.46875        0.03125
 BRILLOUIN|   250           0.00049       -0.46875        0.46875        0.09375
 BRILLOUIN|   251           0.00049       -0.46875        0.46875        0.15625
 BRILLOUIN|   252           0.00049       -0.46875        0.46875        0.21875
 BRILLOUIN|   253           0.00049       -0.46875        0.46875        0.28125
 BRILLOUIN|   254           0.00049       -0.46875        0.46875        0.34375
 BRILLOUIN|   255           0.00049       -0.46875        0.46875        0.40625
 BRILLOUIN|   256           0.00049       -0.46875        0.46875        0.46875
 BRILLOUIN|   257           0.00049       -0.40625       -0.46875       -0.46875
 BRILLOUIN|   258           0.00049       -0.40625       -0.46875       -0.40625
 BRILLOUIN|   259           0.00049       -0.40625       -0.46875       -0.34375
 BRILLOUIN|   260           0.00049       -0.40625       -0.46875       -0.28125
 BRILLOUIN|   261           0.00049       -0.40625       -0.46875       -0.21875
 BRILLOUIN|   262           0.00049       -0.40625       -0.46875       -0.15625
 BRILLOUIN|   263           0.00049       -0.40625       -0.46875       -0.09375
 BRILLOUIN|   264           0.00049       -0.40625       -0.46875       -0.03125
 BRILLOUIN|   265           0.00049       -0.40625       -0.46875        0.03125
 BRILLOUIN|   266           0.00049       -0.40625       -0.46875        0.09375
 BRILLOUIN|   267           0.00049       -0.40625       -0.46875        0.15625
 BRILLOUIN|   268           0.00049       -0.40625       -0.46875        0.21875
 BRILLOUIN|   269           0.00049       -0.40625       -0.46875        0.28125
 BRILLOUIN|   270           0.00049       -0.40625       -0.46875        0.34375
 BRILLOUIN|   271           0.00049       -0.40625       -0.46875        0.40625
 BRILLOUIN|   272           0.00049       -0.40625       -0.46875        0.46875
 BRILLOUIN|   273           0.00049       -0.40625       -0.40625       -0.46875
 BRILLOUIN|   274           0.00049       -0.40625       -0.40625       -0.40625
 BRILLOUIN|   275           0.00049       -0.40625       -0.40625       -0.34375
 BRILLOUIN|   276           0.00049       -0.40625       -0.40625       -0.28125
 BRILLOUIN|   277           0.00049       -0.40625       -0.40625       -0.21875
 BRILLOUIN|   278           0.00049       -0.40625       -0.40625       -0.15625
 BRILLOUIN|   279           0.00049       -0.40625       -0.40625       -0.09375
 BRILLOUIN|   280           0.00049       -0.40625       -0.40625       -0.03125
 BRILLOUIN|   281           0.00049       -0.40625       -0.40625        0.03125
 BRILLOUIN|   282           0.00049       -0.40625       -0.40625        0.09375
 BRILLOUIN|   283           0.00049       -0.40625       -0.40625        0.15625
 BRILLOUIN|   284           0.00049       -0.40625       -0.40625        0.21875
 BRILLOUIN|   285           0.00049       -0.40625       -0.40625        0.28125
 BRILLOUIN|   286           0.00049       -0.40625       -0.40625        0.34375
 BRILLOUIN|   287           0.00049       -0.40625       -0.40625        0.40625
 BRILLOUIN|   288           0.00049       -0.40625       -0.40625        0.46875
 BRILLOUIN|   289           0.00049       -0.40625       -0.34375       -0.46875
 BRILLOUIN|   290           0.00049       -0.40625       -0.34375       -0.40625
 BRILLOUIN|   291           0.00049       -0.40625       -0.34375       -0.34375
 BRILLOUIN|   292           0.00049       -0.40625       -0.34375       -0.28125
 BRILLOUIN|   293           0.00049       -0.40625       -0.34375       -0.21875
 BRILLOUIN|   294           0.00049       -0.40625       -0.34375       -0.15625
 BRILLOUIN|   295           0.00049       -0.40625       -0.34375       -0.09375
 BRILLOUIN|   296           0.00049       -0.40625       -0.34375       -0.03125
 BRILLOUIN|   297           0.00049       -0.40625       -0.34375        0.03125
 BRILLOUIN|   298           0.00049       -0.40625       -0.34375        0.09375
 BRILLOUIN|   299           0.00049       -0.40625       -0.34375        0.15625
 BRILLOUIN|   300           0.00049       -0.40625       -0.34375        0.21875
 BRILLOUIN|   301           0.00049       -0.40625       -0.34375        0.28125
 BRILLOUIN|   302           0.00049       -0.40625       -0.34375        0.34375
 BRILLOUIN|   303           0.00049       -0.40625       -0.34375        0.40625
 BRILLOUIN|   304           0.00049       -0.40625       -0.34375        0.46875
 BRILLOUIN|   305           0.00049       -0.40625       -0.28125       -0.46875
 BRILLOUIN|   306           0.00049       -0.40625       -0.28125       -0.40625
 BRILLOUIN|   307           0.00049       -0.40625       -0.28125       -0.34375
 BRILLOUIN|   308           0.00049       -0.40625       -0.28125       -0.28125
 BRILLOUIN|   309           0.00049       -0.40625       -0.28125       -0.21875
 BRILLOUIN|   310           0.00049       -0.40625       -0.28125       -0.15625
 BRILLOUIN|   311           0.00049       -0.40625       -0.28125       -0.09375
 BRILLOUIN|   312           0.00049       -0.40625       -0.28125       -0.03125
 BRILLOUIN|   313           0.00049       -0.40625       -0.28125        0.03125
 BRILLOUIN|   314           0.00049       -0.40625       -0.28125        0.09375
 BRILLOUIN|   315           0.00049       -0.40625       -0.28125        0.15625
 BRILLOUIN|   316           0.00049       -0.40625       -0.28125        0.21875
 BRILLOUIN|   317           0.00049       -0.40625       -0.28125        0.28125
 BRILLOUIN|   318           0.00049       -0.40625       -0.28125        0.34375
 BRILLOUIN|   319           0.00049       -0.40625       -0.28125        0.40625
 BRILLOUIN|   320           0.00049       -0.40625       -0.28125        0.46875
 BRILLOUIN|   321           0.00049       -0.40625       -0.21875       -0.46875
 BRILLOUIN|   322           0.00049       -0.40625       -0.21875       -0.40625
 BRILLOUIN|   323           0.00049       -0.40625       -0.21875       -0.34375
 BRILLOUIN|   324           0.00049       -0.40625       -0.21875       -0.28125
 BRILLOUIN|   325           0.00049       -0.40625       -0.21875       -0.21875
 BRILLOUIN|   326           0.00049       -0.40625       -0.21875       -0.15625
 BRILLOUIN|   327           0.00049       -0.40625       -0.21875       -0.09375
 BRILLOUIN|   328           0.00049       -0.40625       -0.21875       -0.03125
 BRILLOUIN|   329           0.00049       -0.40625       -0.21875        0.03125
 BRILLOUIN|   330           0.00049       -0.40625       -0.21875        0.09375
 BRILLOUIN|   331           0.00049       -0.40625       -0.21875        0.15625
 BRILLOUIN|   332           0.00049       -0.40625       -0.21875        0.21875
 BRILLOUIN|   333           0.00049       -0.40625       -0.21875        0.28125
 BRILLOUIN|   334           0.00049       -0.40625       -0.21875        0.34375
 BRILLOUIN|   335           0.00049       -0.40625       -0.21875        0.40625
 BRILLOUIN|   336           0.00049       -0.40625       -0.21875        0.46875
 BRILLOUIN|   337           0.00049       -0.40625       -0.15625       -0.46875
 BRILLOUIN|   338           0.00049       -0.40625       -0.15625       -0.40625
 BRILLOUIN|   339           0.00049       -0.40625       -0.15625       -0.34375
 BRILLOUIN|   340           0.00049       -0.40625       -0.15625       -0.28125
 BRILLOUIN|   341           0.00049       -0.40625       -0.15625       -0.21875
 BRILLOUIN|   342           0.00049       -0.40625       -0.15625       -0.15625
 BRILLOUIN|   343           0.00049       -0.40625       -0.15625       -0.09375
 BRILLOUIN|   344           0.00049       -0.40625       -0.15625       -0.03125
 BRILLOUIN|   345           0.00049       -0.40625       -0.15625        0.03125
 BRILLOUIN|   346           0.00049       -0.40625       -0.15625        0.09375
 BRILLOUIN|   347           0.00049       -0.40625       -0.15625        0.15625
 BRILLOUIN|   348           0.00049       -0.40625       -0.15625        0.21875
 BRILLOUIN|   349           0.00049       -0.40625       -0.15625        0.28125
 BRILLOUIN|   350           0.00049       -0.40625       -0.15625        0.34375
 BRILLOUIN|   351           0.00049       -0.40625       -0.15625        0.40625
 BRILLOUIN|   352           0.00049       -0.40625       -0.15625        0.46875
 BRILLOUIN|   353           0.00049       -0.40625       -0.09375       -0.46875
 BRILLOUIN|   354           0.00049       -0.40625       -0.09375       -0.40625
 BRILLOUIN|   355           0.00049       -0.40625       -0.09375       -0.34375
 BRILLOUIN|   356           0.00049       -0.40625       -0.09375       -0.28125
 BRILLOUIN|   357           0.00049       -0.40625       -0.09375       -0.21875
 BRILLOUIN|   358           0.00049       -0.40625       -0.09375       -0.15625
 BRILLOUIN|   359           0.00049       -0.40625       -0.09375       -0.09375
 BRILLOUIN|   360           0.00049       -0.40625       -0.09375       -0.03125
 BRILLOUIN|   361           0.00049       -0.40625       -0.09375        0.03125
 BRILLOUIN|   362           0.00049       -0.40625       -0.09375        0.09375
 BRILLOUIN|   363           0.00049       -0.40625       -0.09375        0.15625
 BRILLOUIN|   364           0.00049       -0.40625       -0.09375        0.21875
 BRILLOUIN|   365           0.00049       -0.40625       -0.09375        0.28125
 BRILLOUIN|   366           0.00049       -0.40625       -0.09375        0.34375
 BRILLOUIN|   367           0.00049       -0.40625       -0.09375        0.40625
 BRILLOUIN|   368           0.00049       -0.40625       -0.09375        0.46875
 BRILLOUIN|   369           0.00049       -0.40625       -0.03125       -0.46875
 BRILLOUIN|   370           0.00049       -0.40625       -0.03125       -0.40625
 BRILLOUIN|   371           0.00049       -0.40625       -0.03125       -0.34375
 BRILLOUIN|   372           0.00049       -0.40625       -0.03125       -0.28125
 BRILLOUIN|   373           0.00049       -0.40625       -0.03125       -0.21875
 BRILLOUIN|   374           0.00049       -0.40625       -0.03125       -0.15625
 BRILLOUIN|   375           0.00049       -0.40625       -0.03125       -0.09375
 BRILLOUIN|   376           0.00049       -0.40625       -0.03125       -0.03125
 BRILLOUIN|   377           0.00049       -0.40625       -0.03125        0.03125
 BRILLOUIN|   378           0.00049       -0.40625       -0.03125        0.09375
 BRILLOUIN|   379           0.00049       -0.40625       -0.03125        0.15625
 BRILLOUIN|   380           0.00049       -0.40625       -0.03125        0.21875
 BRILLOUIN|   381           0.00049       -0.40625       -0.03125        0.28125
 BRILLOUIN|   382           0.00049       -0.40625       -0.03125        0.34375
 BRILLOUIN|   383           0.00049       -0.40625       -0.03125        0.40625
 BRILLOUIN|   384           0.00049       -0.40625       -0.03125        0.46875
 BRILLOUIN|   385           0.00049       -0.40625        0.03125       -0.46875
 BRILLOUIN|   386           0.00049       -0.40625        0.03125       -0.40625
 BRILLOUIN|   387           0.00049       -0.40625        0.03125       -0.34375
 BRILLOUIN|   388           0.00049       -0.40625        0.03125       -0.28125
 BRILLOUIN|   389           0.00049       -0.40625        0.03125       -0.21875
 BRILLOUIN|   390           0.00049       -0.40625        0.03125       -0.15625
 BRILLOUIN|   391           0.00049       -0.40625        0.03125       -0.09375
 BRILLOUIN|   392           0.00049       -0.40625        0.03125       -0.03125
 BRILLOUIN|   393           0.00049       -0.40625        0.03125        0.03125
 BRILLOUIN|   394           0.00049       -0.40625        0.03125        0.09375
 BRILLOUIN|   395           0.00049       -0.40625        0.03125        0.15625
 BRILLOUIN|   396           0.00049       -0.40625        0.03125        0.21875
 BRILLOUIN|   397           0.00049       -0.40625        0.03125        0.28125
 BRILLOUIN|   398           0.00049       -0.40625        0.03125        0.34375
 BRILLOUIN|   399           0.00049       -0.40625        0.03125        0.40625
 BRILLOUIN|   400           0.00049       -0.40625        0.03125        0.46875
 BRILLOUIN|   401           0.00049       -0.40625        0.09375       -0.46875
 BRILLOUIN|   402           0.00049       -0.40625        0.09375       -0.40625
 BRILLOUIN|   403           0.00049       -0.40625        0.09375       -0.34375
 BRILLOUIN|   404           0.00049       -0.40625        0.09375       -0.28125
 BRILLOUIN|   405           0.00049       -0.40625        0.09375       -0.21875
 BRILLOUIN|   406           0.00049       -0.40625        0.09375       -0.15625
 BRILLOUIN|   407           0.00049       -0.40625        0.09375       -0.09375
 BRILLOUIN|   408           0.00049       -0.40625        0.09375       -0.03125
 BRILLOUIN|   409           0.00049       -0.40625        0.09375        0.03125
 BRILLOUIN|   410           0.00049       -0.40625        0.09375        0.09375
 BRILLOUIN|   411           0.00049       -0.40625        0.09375        0.15625
 BRILLOUIN|   412           0.00049       -0.40625        0.09375        0.21875
 BRILLOUIN|   413           0.00049       -0.40625        0.09375        0.28125
 BRILLOUIN|   414           0.00049       -0.40625        0.09375        0.34375
 BRILLOUIN|   415           0.00049       -0.40625        0.09375        0.40625
 BRILLOUIN|   416           0.00049       -0.40625        0.09375        0.46875
 BRILLOUIN|   417           0.00049       -0.40625        0.15625       -0.46875
 BRILLOUIN|   418           0.00049       -0.40625        0.15625       -0.40625
 BRILLOUIN|   419           0.00049       -0.40625        0.15625       -0.34375
 BRILLOUIN|   420           0.00049       -0.40625        0.15625       -0.28125
 BRILLOUIN|   421           0.00049       -0.40625        0.15625       -0.21875
 BRILLOUIN|   422           0.00049       -0.40625        0.15625       -0.15625
 BRILLOUIN|   423           0.00049       -0.40625        0.15625       -0.09375
 BRILLOUIN|   424           0.00049       -0.40625        0.15625       -0.03125
 BRILLOUIN|   425           0.00049       -0.40625        0.15625        0.03125
 BRILLOUIN|   426           0.00049       -0.40625        0.15625        0.09375
 BRILLOUIN|   427           0.00049       -0.40625        0.15625        0.15625
 BRILLOUIN|   428           0.00049       -0.40625        0.15625        0.21875
 BRILLOUIN|   429           0.00049       -0.40625        0.15625        0.28125
 BRILLOUIN|   430           0.00049       -0.40625        0.15625        0.34375
 BRILLOUIN|   431           0.00049       -0.40625        0.15625        0.40625
 BRILLOUIN|   432           0.00049       -0.40625        0.15625        0.46875
 BRILLOUIN|   433           0.00049       -0.40625        0.21875       -0.46875
 BRILLOUIN|   434           0.00049       -0.40625        0.21875       -0.40625
 BRILLOUIN|   435           0.00049       -0.40625        0.21875       -0.34375
 BRILLOUIN|   436           0.00049       -0.40625        0.21875       -0.28125
 BRILLOUIN|   437           0.00049       -0.40625        0.21875       -0.21875
 BRILLOUIN|   438           0.00049       -0.40625        0.21875       -0.15625
 BRILLOUIN|   439           0.00049       -0.40625        0.21875       -0.09375
 BRILLOUIN|   440           0.00049       -0.40625        0.21875       -0.03125
 BRILLOUIN|   441           0.00049       -0.40625        0.21875        0.03125
 BRILLOUIN|   442           0.00049       -0.40625        0.21875        0.09375
 BRILLOUIN|   443           0.00049       -0.40625        0.21875        0.15625
 BRILLOUIN|   444           0.00049       -0.40625        0.21875        0.21875
 BRILLOUIN|   445           0.00049       -0.40625        0.21875        0.28125
 BRILLOUIN|   446           0.00049       -0.40625        0.21875        0.34375
 BRILLOUIN|   447           0.00049       -0.40625        0.21875        0.40625
 BRILLOUIN|   448           0.00049       -0.40625        0.21875        0.46875
 BRILLOUIN|   449           0.00049       -0.40625        0.28125       -0.46875
 BRILLOUIN|   450           0.00049       -0.40625        0.28125       -0.40625
 BRILLOUIN|   451           0.00049       -0.40625        0.28125       -0.34375
 BRILLOUIN|   452           0.00049       -0.40625        0.28125       -0.28125
 BRILLOUIN|   453           0.00049       -0.40625        0.28125       -0.21875
 BRILLOUIN|   454           0.00049       -0.40625        0.28125       -0.15625
 BRILLOUIN|   455           0.00049       -0.40625        0.28125       -0.09375
 BRILLOUIN|   456           0.00049       -0.40625        0.28125       -0.03125
 BRILLOUIN|   457           0.00049       -0.40625        0.28125        0.03125
 BRILLOUIN|   458           0.00049       -0.40625        0.28125        0.09375
 BRILLOUIN|   459           0.00049       -0.40625        0.28125        0.15625
 BRILLOUIN|   460           0.00049       -0.40625        0.28125        0.21875
 BRILLOUIN|   461           0.00049       -0.40625        0.28125        0.28125
 BRILLOUIN|   462           0.00049       -0.40625        0.28125        0.34375
 BRILLOUIN|   463           0.00049       -0.40625        0.28125        0.40625
 BRILLOUIN|   464           0.00049       -0.40625        0.28125        0.46875
 BRILLOUIN|   465           0.00049       -0.40625        0.34375       -0.46875
 BRILLOUIN|   466           0.00049       -0.40625        0.34375       -0.40625
 BRILLOUIN|   467           0.00049       -0.40625        0.34375       -0.34375
 BRILLOUIN|   468           0.00049       -0.40625        0.34375       -0.28125
 BRILLOUIN|   469           0.00049       -0.40625        0.34375       -0.21875
 BRILLOUIN|   470           0.00049       -0.40625        0.34375       -0.15625
 BRILLOUIN|   471           0.00049       -0.40625        0.34375       -0.09375
 BRILLOUIN|   472           0.00049       -0.40625        0.34375       -0.03125
 BRILLOUIN|   473           0.00049       -0.40625        0.34375        0.03125
 BRILLOUIN|   474           0.00049       -0.40625        0.34375        0.09375
 BRILLOUIN|   475           0.00049       -0.40625        0.34375        0.15625
 BRILLOUIN|   476           0.00049       -0.40625        0.34375        0.21875
 BRILLOUIN|   477           0.00049       -0.40625        0.34375        0.28125
 BRILLOUIN|   478           0.00049       -0.40625        0.34375        0.34375
 BRILLOUIN|   479           0.00049       -0.40625        0.34375        0.40625
 BRILLOUIN|   480           0.00049       -0.40625        0.34375        0.46875
 BRILLOUIN|   481           0.00049       -0.40625        0.40625       -0.46875
 BRILLOUIN|   482           0.00049       -0.40625        0.40625       -0.40625
 BRILLOUIN|   483           0.00049       -0.40625        0.40625       -0.34375
 BRILLOUIN|   484           0.00049       -0.40625        0.40625       -0.28125
 BRILLOUIN|   485           0.00049       -0.40625        0.40625       -0.21875
 BRILLOUIN|   486           0.00049       -0.40625        0.40625       -0.15625
 BRILLOUIN|   487           0.00049       -0.40625        0.40625       -0.09375
 BRILLOUIN|   488           0.00049       -0.40625        0.40625       -0.03125
 BRILLOUIN|   489           0.00049       -0.40625        0.40625        0.03125
 BRILLOUIN|   490           0.00049       -0.40625        0.40625        0.09375
 BRILLOUIN|   491           0.00049       -0.40625        0.40625        0.15625
 BRILLOUIN|   492           0.00049       -0.40625        0.40625        0.21875
 BRILLOUIN|   493           0.00049       -0.40625        0.40625        0.28125
 BRILLOUIN|   494           0.00049       -0.40625        0.40625        0.34375
 BRILLOUIN|   495           0.00049       -0.40625        0.40625        0.40625
 BRILLOUIN|   496           0.00049       -0.40625        0.40625        0.46875
 BRILLOUIN|   497           0.00049       -0.40625        0.46875       -0.46875
 BRILLOUIN|   498           0.00049       -0.40625        0.46875       -0.40625
 BRILLOUIN|   499           0.00049       -0.40625        0.46875       -0.34375
 BRILLOUIN|   500           0.00049       -0.40625        0.46875       -0.28125
 BRILLOUIN|   501           0.00049       -0.40625        0.46875       -0.21875
 BRILLOUIN|   502           0.00049       -0.40625        0.46875       -0.15625
 BRILLOUIN|   503           0.00049       -0.40625        0.46875       -0.09375
 BRILLOUIN|   504           0.00049       -0.40625        0.46875       -0.03125
 BRILLOUIN|   505           0.00049       -0.40625        0.46875        0.03125
 BRILLOUIN|   506           0.00049       -0.40625        0.46875        0.09375
 BRILLOUIN|   507           0.00049       -0.40625        0.46875        0.15625
 BRILLOUIN|   508           0.00049       -0.40625        0.46875        0.21875
 BRILLOUIN|   509           0.00049       -0.40625        0.46875        0.28125
 BRILLOUIN|   510           0.00049       -0.40625        0.46875        0.34375
 BRILLOUIN|   511           0.00049       -0.40625        0.46875        0.40625
 BRILLOUIN|   512           0.00049       -0.40625        0.46875        0.46875
 BRILLOUIN|   513           0.00049       -0.34375       -0.46875       -0.46875
 BRILLOUIN|   514           0.00049       -0.34375       -0.46875       -0.40625
 BRILLOUIN|   515           0.00049       -0.34375       -0.46875       -0.34375
 BRILLOUIN|   516           0.00049       -0.34375       -0.46875       -0.28125
 BRILLOUIN|   517           0.00049       -0.34375       -0.46875       -0.21875
 BRILLOUIN|   518           0.00049       -0.34375       -0.46875       -0.15625
 BRILLOUIN|   519           0.00049       -0.34375       -0.46875       -0.09375
 BRILLOUIN|   520           0.00049       -0.34375       -0.46875       -0.03125
 BRILLOUIN|   521           0.00049       -0.34375       -0.46875        0.03125
 BRILLOUIN|   522           0.00049       -0.34375       -0.46875        0.09375
 BRILLOUIN|   523           0.00049       -0.34375       -0.46875        0.15625
 BRILLOUIN|   524           0.00049       -0.34375       -0.46875        0.21875
 BRILLOUIN|   525           0.00049       -0.34375       -0.46875        0.28125
 BRILLOUIN|   526           0.00049       -0.34375       -0.46875        0.34375
 BRILLOUIN|   527           0.00049       -0.34375       -0.46875        0.40625
 BRILLOUIN|   528           0.00049       -0.34375       -0.46875        0.46875
 BRILLOUIN|   529           0.00049       -0.34375       -0.40625       -0.46875
 BRILLOUIN|   530           0.00049       -0.34375       -0.40625       -0.40625
 BRILLOUIN|   531           0.00049       -0.34375       -0.40625       -0.34375
 BRILLOUIN|   532           0.00049       -0.34375       -0.40625       -0.28125
 BRILLOUIN|   533           0.00049       -0.34375       -0.40625       -0.21875
 BRILLOUIN|   534           0.00049       -0.34375       -0.40625       -0.15625
 BRILLOUIN|   535           0.00049       -0.34375       -0.40625       -0.09375
 BRILLOUIN|   536           0.00049       -0.34375       -0.40625       -0.03125
 BRILLOUIN|   537           0.00049       -0.34375       -0.40625        0.03125
 BRILLOUIN|   538           0.00049       -0.34375       -0.40625        0.09375
 BRILLOUIN|   539           0.00049       -0.34375       -0.40625        0.15625
 BRILLOUIN|   540           0.00049       -0.34375       -0.40625        0.21875
 BRILLOUIN|   541           0.00049       -0.34375       -0.40625        0.28125
 BRILLOUIN|   542           0.00049       -0.34375       -0.40625        0.34375
 BRILLOUIN|   543           0.00049       -0.34375       -0.40625        0.40625
 BRILLOUIN|   544           0.00049       -0.34375       -0.40625        0.46875
 BRILLOUIN|   545           0.00049       -0.34375       -0.34375       -0.46875
 BRILLOUIN|   546           0.00049       -0.34375       -0.34375       -0.40625
 BRILLOUIN|   547           0.00049       -0.34375       -0.34375       -0.34375
 BRILLOUIN|   548           0.00049       -0.34375       -0.34375       -0.28125
 BRILLOUIN|   549           0.00049       -0.34375       -0.34375       -0.21875
 BRILLOUIN|   550           0.00049       -0.34375       -0.34375       -0.15625
 BRILLOUIN|   551           0.00049       -0.34375       -0.34375       -0.09375
 BRILLOUIN|   552           0.00049       -0.34375       -0.34375       -0.03125
 BRILLOUIN|   553           0.00049       -0.34375       -0.34375        0.03125
 BRILLOUIN|   554           0.00049       -0.34375       -0.34375        0.09375
 BRILLOUIN|   555           0.00049       -0.34375       -0.34375        0.15625
 BRILLOUIN|   556           0.00049       -0.34375       -0.34375        0.21875
 BRILLOUIN|   557           0.00049       -0.34375       -0.34375        0.28125
 BRILLOUIN|   558           0.00049       -0.34375       -0.34375        0.34375
 BRILLOUIN|   559           0.00049       -0.34375       -0.34375        0.40625
 BRILLOUIN|   560           0.00049       -0.34375       -0.34375        0.46875
 BRILLOUIN|   561           0.00049       -0.34375       -0.28125       -0.46875
 BRILLOUIN|   562           0.00049       -0.34375       -0.28125       -0.40625
 BRILLOUIN|   563           0.00049       -0.34375       -0.28125       -0.34375
 BRILLOUIN|   564           0.00049       -0.34375       -0.28125       -0.28125
 BRILLOUIN|   565           0.00049       -0.34375       -0.28125       -0.21875
 BRILLOUIN|   566           0.00049       -0.34375       -0.28125       -0.15625
 BRILLOUIN|   567           0.00049       -0.34375       -0.28125       -0.09375
 BRILLOUIN|   568           0.00049       -0.34375       -0.28125       -0.03125
 BRILLOUIN|   569           0.00049       -0.34375       -0.28125        0.03125
 BRILLOUIN|   570           0.00049       -0.34375       -0.28125        0.09375
 BRILLOUIN|   571           0.00049       -0.34375       -0.28125        0.15625
 BRILLOUIN|   572           0.00049       -0.34375       -0.28125        0.21875
 BRILLOUIN|   573           0.00049       -0.34375       -0.28125        0.28125
 BRILLOUIN|   574           0.00049       -0.34375       -0.28125        0.34375
 BRILLOUIN|   575           0.00049       -0.34375       -0.28125        0.40625
 BRILLOUIN|   576           0.00049       -0.34375       -0.28125        0.46875
 BRILLOUIN|   577           0.00049       -0.34375       -0.21875       -0.46875
 BRILLOUIN|   578           0.00049       -0.34375       -0.21875       -0.40625
 BRILLOUIN|   579           0.00049       -0.34375       -0.21875       -0.34375
 BRILLOUIN|   580           0.00049       -0.34375       -0.21875       -0.28125
 BRILLOUIN|   581           0.00049       -0.34375       -0.21875       -0.21875
 BRILLOUIN|   582           0.00049       -0.34375       -0.21875       -0.15625
 BRILLOUIN|   583           0.00049       -0.34375       -0.21875       -0.09375
 BRILLOUIN|   584           0.00049       -0.34375       -0.21875       -0.03125
 BRILLOUIN|   585           0.00049       -0.34375       -0.21875        0.03125
 BRILLOUIN|   586           0.00049       -0.34375       -0.21875        0.09375
 BRILLOUIN|   587           0.00049       -0.34375       -0.21875        0.15625
 BRILLOUIN|   588           0.00049       -0.34375       -0.21875        0.21875
 BRILLOUIN|   589           0.00049       -0.34375       -0.21875        0.28125
 BRILLOUIN|   590           0.00049       -0.34375       -0.21875        0.34375
 BRILLOUIN|   591           0.00049       -0.34375       -0.21875        0.40625
 BRILLOUIN|   592           0.00049       -0.34375       -0.21875        0.46875
 BRILLOUIN|   593           0.00049       -0.34375       -0.15625       -0.46875
 BRILLOUIN|   594           0.00049       -0.34375       -0.15625       -0.40625
 BRILLOUIN|   595           0.00049       -0.34375       -0.15625       -0.34375
 BRILLOUIN|   596           0.00049       -0.34375       -0.15625       -0.28125
 BRILLOUIN|   597           0.00049       -0.34375       -0.15625       -0.21875
 BRILLOUIN|   598           0.00049       -0.34375       -0.15625       -0.15625
 BRILLOUIN|   599           0.00049       -0.34375       -0.15625       -0.09375
 BRILLOUIN|   600           0.00049       -0.34375       -0.15625       -0.03125
 BRILLOUIN|   601           0.00049       -0.34375       -0.15625        0.03125
 BRILLOUIN|   602           0.00049       -0.34375       -0.15625        0.09375
 BRILLOUIN|   603           0.00049       -0.34375       -0.15625        0.15625
 BRILLOUIN|   604           0.00049       -0.34375       -0.15625        0.21875
 BRILLOUIN|   605           0.00049       -0.34375       -0.15625        0.28125
 BRILLOUIN|   606           0.00049       -0.34375       -0.15625        0.34375
 BRILLOUIN|   607           0.00049       -0.34375       -0.15625        0.40625
 BRILLOUIN|   608           0.00049       -0.34375       -0.15625        0.46875
 BRILLOUIN|   609           0.00049       -0.34375       -0.09375       -0.46875
 BRILLOUIN|   610           0.00049       -0.34375       -0.09375       -0.40625
 BRILLOUIN|   611           0.00049       -0.34375       -0.09375       -0.34375
 BRILLOUIN|   612           0.00049       -0.34375       -0.09375       -0.28125
 BRILLOUIN|   613           0.00049       -0.34375       -0.09375       -0.21875
 BRILLOUIN|   614           0.00049       -0.34375       -0.09375       -0.15625
 BRILLOUIN|   615           0.00049       -0.34375       -0.09375       -0.09375
 BRILLOUIN|   616           0.00049       -0.34375       -0.09375       -0.03125
 BRILLOUIN|   617           0.00049       -0.34375       -0.09375        0.03125
 BRILLOUIN|   618           0.00049       -0.34375       -0.09375        0.09375
 BRILLOUIN|   619           0.00049       -0.34375       -0.09375        0.15625
 BRILLOUIN|   620           0.00049       -0.34375       -0.09375        0.21875
 BRILLOUIN|   621           0.00049       -0.34375       -0.09375        0.28125
 BRILLOUIN|   622           0.00049       -0.34375       -0.09375        0.34375
 BRILLOUIN|   623           0.00049       -0.34375       -0.09375        0.40625
 BRILLOUIN|   624           0.00049       -0.34375       -0.09375        0.46875
 BRILLOUIN|   625           0.00049       -0.34375       -0.03125       -0.46875
 BRILLOUIN|   626           0.00049       -0.34375       -0.03125       -0.40625
 BRILLOUIN|   627           0.00049       -0.34375       -0.03125       -0.34375
 BRILLOUIN|   628           0.00049       -0.34375       -0.03125       -0.28125
 BRILLOUIN|   629           0.00049       -0.34375       -0.03125       -0.21875
 BRILLOUIN|   630           0.00049       -0.34375       -0.03125       -0.15625
 BRILLOUIN|   631           0.00049       -0.34375       -0.03125       -0.09375
 BRILLOUIN|   632           0.00049       -0.34375       -0.03125       -0.03125
 BRILLOUIN|   633           0.00049       -0.34375       -0.03125        0.03125
 BRILLOUIN|   634           0.00049       -0.34375       -0.03125        0.09375
 BRILLOUIN|   635           0.00049       -0.34375       -0.03125        0.15625
 BRILLOUIN|   636           0.00049       -0.34375       -0.03125        0.21875
 BRILLOUIN|   637           0.00049       -0.34375       -0.03125        0.28125
 BRILLOUIN|   638           0.00049       -0.34375       -0.03125        0.34375
 BRILLOUIN|   639           0.00049       -0.34375       -0.03125        0.40625
 BRILLOUIN|   640           0.00049       -0.34375       -0.03125        0.46875
 BRILLOUIN|   641           0.00049       -0.34375        0.03125       -0.46875
 BRILLOUIN|   642           0.00049       -0.34375        0.03125       -0.40625
 BRILLOUIN|   643           0.00049       -0.34375        0.03125       -0.34375
 BRILLOUIN|   644           0.00049       -0.34375        0.03125       -0.28125
 BRILLOUIN|   645           0.00049       -0.34375        0.03125       -0.21875
 BRILLOUIN|   646           0.00049       -0.34375        0.03125       -0.15625
 BRILLOUIN|   647           0.00049       -0.34375        0.03125       -0.09375
 BRILLOUIN|   648           0.00049       -0.34375        0.03125       -0.03125
 BRILLOUIN|   649           0.00049       -0.34375        0.03125        0.03125
 BRILLOUIN|   650           0.00049       -0.34375        0.03125        0.09375
 BRILLOUIN|   651           0.00049       -0.34375        0.03125        0.15625
 BRILLOUIN|   652           0.00049       -0.34375        0.03125        0.21875
 BRILLOUIN|   653           0.00049       -0.34375        0.03125        0.28125
 BRILLOUIN|   654           0.00049       -0.34375        0.03125        0.34375
 BRILLOUIN|   655           0.00049       -0.34375        0.03125        0.40625
 BRILLOUIN|   656           0.00049       -0.34375        0.03125        0.46875
 BRILLOUIN|   657           0.00049       -0.34375        0.09375       -0.46875
 BRILLOUIN|   658           0.00049       -0.34375        0.09375       -0.40625
 BRILLOUIN|   659           0.00049       -0.34375        0.09375       -0.34375
 BRILLOUIN|   660           0.00049       -0.34375        0.09375       -0.28125
 BRILLOUIN|   661           0.00049       -0.34375        0.09375       -0.21875
 BRILLOUIN|   662           0.00049       -0.34375        0.09375       -0.15625
 BRILLOUIN|   663           0.00049       -0.34375        0.09375       -0.09375
 BRILLOUIN|   664           0.00049       -0.34375        0.09375       -0.03125
 BRILLOUIN|   665           0.00049       -0.34375        0.09375        0.03125
 BRILLOUIN|   666           0.00049       -0.34375        0.09375        0.09375
 BRILLOUIN|   667           0.00049       -0.34375        0.09375        0.15625
 BRILLOUIN|   668           0.00049       -0.34375        0.09375        0.21875
 BRILLOUIN|   669           0.00049       -0.34375        0.09375        0.28125
 BRILLOUIN|   670           0.00049       -0.34375        0.09375        0.34375
 BRILLOUIN|   671           0.00049       -0.34375        0.09375        0.40625
 BRILLOUIN|   672           0.00049       -0.34375        0.09375        0.46875
 BRILLOUIN|   673           0.00049       -0.34375        0.15625       -0.46875
 BRILLOUIN|   674           0.00049       -0.34375        0.15625       -0.40625
 BRILLOUIN|   675           0.00049       -0.34375        0.15625       -0.34375
 BRILLOUIN|   676           0.00049       -0.34375        0.15625       -0.28125
 BRILLOUIN|   677           0.00049       -0.34375        0.15625       -0.21875
 BRILLOUIN|   678           0.00049       -0.34375        0.15625       -0.15625
 BRILLOUIN|   679           0.00049       -0.34375        0.15625       -0.09375
 BRILLOUIN|   680           0.00049       -0.34375        0.15625       -0.03125
 BRILLOUIN|   681           0.00049       -0.34375        0.15625        0.03125
 BRILLOUIN|   682           0.00049       -0.34375        0.15625        0.09375
 BRILLOUIN|   683           0.00049       -0.34375        0.15625        0.15625
 BRILLOUIN|   684           0.00049       -0.34375        0.15625        0.21875
 BRILLOUIN|   685           0.00049       -0.34375        0.15625        0.28125
 BRILLOUIN|   686           0.00049       -0.34375        0.15625        0.34375
 BRILLOUIN|   687           0.00049       -0.34375        0.15625        0.40625
 BRILLOUIN|   688           0.00049       -0.34375        0.15625        0.46875
 BRILLOUIN|   689           0.00049       -0.34375        0.21875       -0.46875
 BRILLOUIN|   690           0.00049       -0.34375        0.21875       -0.40625
 BRILLOUIN|   691           0.00049       -0.34375        0.21875       -0.34375
 BRILLOUIN|   692           0.00049       -0.34375        0.21875       -0.28125
 BRILLOUIN|   693           0.00049       -0.34375        0.21875       -0.21875
 BRILLOUIN|   694           0.00049       -0.34375        0.21875       -0.15625
 BRILLOUIN|   695           0.00049       -0.34375        0.21875       -0.09375
 BRILLOUIN|   696           0.00049       -0.34375        0.21875       -0.03125
 BRILLOUIN|   697           0.00049       -0.34375        0.21875        0.03125
 BRILLOUIN|   698           0.00049       -0.34375        0.21875        0.09375
 BRILLOUIN|   699           0.00049       -0.34375        0.21875        0.15625
 BRILLOUIN|   700           0.00049       -0.34375        0.21875        0.21875
 BRILLOUIN|   701           0.00049       -0.34375        0.21875        0.28125
 BRILLOUIN|   702           0.00049       -0.34375        0.21875        0.34375
 BRILLOUIN|   703           0.00049       -0.34375        0.21875        0.40625
 BRILLOUIN|   704           0.00049       -0.34375        0.21875        0.46875
 BRILLOUIN|   705           0.00049       -0.34375        0.28125       -0.46875
 BRILLOUIN|   706           0.00049       -0.34375        0.28125       -0.40625
 BRILLOUIN|   707           0.00049       -0.34375        0.28125       -0.34375
 BRILLOUIN|   708           0.00049       -0.34375        0.28125       -0.28125
 BRILLOUIN|   709           0.00049       -0.34375        0.28125       -0.21875
 BRILLOUIN|   710           0.00049       -0.34375        0.28125       -0.15625
 BRILLOUIN|   711           0.00049       -0.34375        0.28125       -0.09375
 BRILLOUIN|   712           0.00049       -0.34375        0.28125       -0.03125
 BRILLOUIN|   713           0.00049       -0.34375        0.28125        0.03125
 BRILLOUIN|   714           0.00049       -0.34375        0.28125        0.09375
 BRILLOUIN|   715           0.00049       -0.34375        0.28125        0.15625
 BRILLOUIN|   716           0.00049       -0.34375        0.28125        0.21875
 BRILLOUIN|   717           0.00049       -0.34375        0.28125        0.28125
 BRILLOUIN|   718           0.00049       -0.34375        0.28125        0.34375
 BRILLOUIN|   719           0.00049       -0.34375        0.28125        0.40625
 BRILLOUIN|   720           0.00049       -0.34375        0.28125        0.46875
 BRILLOUIN|   721           0.00049       -0.34375        0.34375       -0.46875
 BRILLOUIN|   722           0.00049       -0.34375        0.34375       -0.40625
 BRILLOUIN|   723           0.00049       -0.34375        0.34375       -0.34375
 BRILLOUIN|   724           0.00049       -0.34375        0.34375       -0.28125
 BRILLOUIN|   725           0.00049       -0.34375        0.34375       -0.21875
 BRILLOUIN|   726           0.00049       -0.34375        0.34375       -0.15625
 BRILLOUIN|   727           0.00049       -0.34375        0.34375       -0.09375
 BRILLOUIN|   728           0.00049       -0.34375        0.34375       -0.03125
 BRILLOUIN|   729           0.00049       -0.34375        0.34375        0.03125
 BRILLOUIN|   730           0.00049       -0.34375        0.34375        0.09375
 BRILLOUIN|   731           0.00049       -0.34375        0.34375        0.15625
 BRILLOUIN|   732           0.00049       -0.34375        0.34375        0.21875
 BRILLOUIN|   733           0.00049       -0.34375        0.34375        0.28125
 BRILLOUIN|   734           0.00049       -0.34375        0.34375        0.34375
 BRILLOUIN|   735           0.00049       -0.34375        0.34375        0.40625
 BRILLOUIN|   736           0.00049       -0.34375        0.34375        0.46875
 BRILLOUIN|   737           0.00049       -0.34375        0.40625       -0.46875
 BRILLOUIN|   738           0.00049       -0.34375        0.40625       -0.40625
 BRILLOUIN|   739           0.00049       -0.34375        0.40625       -0.34375
 BRILLOUIN|   740           0.00049       -0.34375        0.40625       -0.28125
 BRILLOUIN|   741           0.00049       -0.34375        0.40625       -0.21875
 BRILLOUIN|   742           0.00049       -0.34375        0.40625       -0.15625
 BRILLOUIN|   743           0.00049       -0.34375        0.40625       -0.09375
 BRILLOUIN|   744           0.00049       -0.34375        0.40625       -0.03125
 BRILLOUIN|   745           0.00049       -0.34375        0.40625        0.03125
 BRILLOUIN|   746           0.00049       -0.34375        0.40625        0.09375
 BRILLOUIN|   747           0.00049       -0.34375        0.40625        0.15625
 BRILLOUIN|   748           0.00049       -0.34375        0.40625        0.21875
 BRILLOUIN|   749           0.00049       -0.34375        0.40625        0.28125
 BRILLOUIN|   750           0.00049       -0.34375        0.40625        0.34375
 BRILLOUIN|   751           0.00049       -0.34375        0.40625        0.40625
 BRILLOUIN|   752           0.00049       -0.34375        0.40625        0.46875
 BRILLOUIN|   753           0.00049       -0.34375        0.46875       -0.46875
 BRILLOUIN|   754           0.00049       -0.34375        0.46875       -0.40625
 BRILLOUIN|   755           0.00049       -0.34375        0.46875       -0.34375
 BRILLOUIN|   756           0.00049       -0.34375        0.46875       -0.28125
 BRILLOUIN|   757           0.00049       -0.34375        0.46875       -0.21875
 BRILLOUIN|   758           0.00049       -0.34375        0.46875       -0.15625
 BRILLOUIN|   759           0.00049       -0.34375        0.46875       -0.09375
 BRILLOUIN|   760           0.00049       -0.34375        0.46875       -0.03125
 BRILLOUIN|   761           0.00049       -0.34375        0.46875        0.03125
 BRILLOUIN|   762           0.00049       -0.34375        0.46875        0.09375
 BRILLOUIN|   763           0.00049       -0.34375        0.46875        0.15625
 BRILLOUIN|   764           0.00049       -0.34375        0.46875        0.21875
 BRILLOUIN|   765           0.00049       -0.34375        0.46875        0.28125
 BRILLOUIN|   766           0.00049       -0.34375        0.46875        0.34375
 BRILLOUIN|   767           0.00049       -0.34375        0.46875        0.40625
 BRILLOUIN|   768           0.00049       -0.34375        0.46875        0.46875
 BRILLOUIN|   769           0.00049       -0.28125       -0.46875       -0.46875
 BRILLOUIN|   770           0.00049       -0.28125       -0.46875       -0.40625
 BRILLOUIN|   771           0.00049       -0.28125       -0.46875       -0.34375
 BRILLOUIN|   772           0.00049       -0.28125       -0.46875       -0.28125
 BRILLOUIN|   773           0.00049       -0.28125       -0.46875       -0.21875
 BRILLOUIN|   774           0.00049       -0.28125       -0.46875       -0.15625
 BRILLOUIN|   775           0.00049       -0.28125       -0.46875       -0.09375
 BRILLOUIN|   776           0.00049       -0.28125       -0.46875       -0.03125
 BRILLOUIN|   777           0.00049       -0.28125       -0.46875        0.03125
 BRILLOUIN|   778           0.00049       -0.28125       -0.46875        0.09375
 BRILLOUIN|   779           0.00049       -0.28125       -0.46875        0.15625
 BRILLOUIN|   780           0.00049       -0.28125       -0.46875        0.21875
 BRILLOUIN|   781           0.00049       -0.28125       -0.46875        0.28125
 BRILLOUIN|   782           0.00049       -0.28125       -0.46875        0.34375
 BRILLOUIN|   783           0.00049       -0.28125       -0.46875        0.40625
 BRILLOUIN|   784           0.00049       -0.28125       -0.46875        0.46875
 BRILLOUIN|   785           0.00049       -0.28125       -0.40625       -0.46875
 BRILLOUIN|   786           0.00049       -0.28125       -0.40625       -0.40625
 BRILLOUIN|   787           0.00049       -0.28125       -0.40625       -0.34375
 BRILLOUIN|   788           0.00049       -0.28125       -0.40625       -0.28125
 BRILLOUIN|   789           0.00049       -0.28125       -0.40625       -0.21875
 BRILLOUIN|   790           0.00049       -0.28125       -0.40625       -0.15625
 BRILLOUIN|   791           0.00049       -0.28125       -0.40625       -0.09375
 BRILLOUIN|   792           0.00049       -0.28125       -0.40625       -0.03125
 BRILLOUIN|   793           0.00049       -0.28125       -0.40625        0.03125
 BRILLOUIN|   794           0.00049       -0.28125       -0.40625        0.09375
 BRILLOUIN|   795           0.00049       -0.28125       -0.40625        0.15625
 BRILLOUIN|   796           0.00049       -0.28125       -0.40625        0.21875
 BRILLOUIN|   797           0.00049       -0.28125       -0.40625        0.28125
 BRILLOUIN|   798           0.00049       -0.28125       -0.40625        0.34375
 BRILLOUIN|   799           0.00049       -0.28125       -0.40625        0.40625
 BRILLOUIN|   800           0.00049       -0.28125       -0.40625        0.46875
 BRILLOUIN|   801           0.00049       -0.28125       -0.34375       -0.46875
 BRILLOUIN|   802           0.00049       -0.28125       -0.34375       -0.40625
 BRILLOUIN|   803           0.00049       -0.28125       -0.34375       -0.34375
 BRILLOUIN|   804           0.00049       -0.28125       -0.34375       -0.28125
 BRILLOUIN|   805           0.00049       -0.28125       -0.34375       -0.21875
 BRILLOUIN|   806           0.00049       -0.28125       -0.34375       -0.15625
 BRILLOUIN|   807           0.00049       -0.28125       -0.34375       -0.09375
 BRILLOUIN|   808           0.00049       -0.28125       -0.34375       -0.03125
 BRILLOUIN|   809           0.00049       -0.28125       -0.34375        0.03125
 BRILLOUIN|   810           0.00049       -0.28125       -0.34375        0.09375
 BRILLOUIN|   811           0.00049       -0.28125       -0.34375        0.15625
 BRILLOUIN|   812           0.00049       -0.28125       -0.34375        0.21875
 BRILLOUIN|   813           0.00049       -0.28125       -0.34375        0.28125
 BRILLOUIN|   814           0.00049       -0.28125       -0.34375        0.34375
 BRILLOUIN|   815           0.00049       -0.28125       -0.34375        0.40625
 BRILLOUIN|   816           0.00049       -0.28125       -0.34375        0.46875
 BRILLOUIN|   817           0.00049       -0.28125       -0.28125       -0.46875
 BRILLOUIN|   818           0.00049       -0.28125       -0.28125       -0.40625
 BRILLOUIN|   819           0.00049       -0.28125       -0.28125       -0.34375
 BRILLOUIN|   820           0.00049       -0.28125       -0.28125       -0.28125
 BRILLOUIN|   821           0.00049       -0.28125       -0.28125       -0.21875
 BRILLOUIN|   822           0.00049       -0.28125       -0.28125       -0.15625
 BRILLOUIN|   823           0.00049       -0.28125       -0.28125       -0.09375
 BRILLOUIN|   824           0.00049       -0.28125       -0.28125       -0.03125
 BRILLOUIN|   825           0.00049       -0.28125       -0.28125        0.03125
 BRILLOUIN|   826           0.00049       -0.28125       -0.28125        0.09375
 BRILLOUIN|   827           0.00049       -0.28125       -0.28125        0.15625
 BRILLOUIN|   828           0.00049       -0.28125       -0.28125        0.21875
 BRILLOUIN|   829           0.00049       -0.28125       -0.28125        0.28125
 BRILLOUIN|   830           0.00049       -0.28125       -0.28125        0.34375
 BRILLOUIN|   831           0.00049       -0.28125       -0.28125        0.40625
 BRILLOUIN|   832           0.00049       -0.28125       -0.28125        0.46875
 BRILLOUIN|   833           0.00049       -0.28125       -0.21875       -0.46875
 BRILLOUIN|   834           0.00049       -0.28125       -0.21875       -0.40625
 BRILLOUIN|   835           0.00049       -0.28125       -0.21875       -0.34375
 BRILLOUIN|   836           0.00049       -0.28125       -0.21875       -0.28125
 BRILLOUIN|   837           0.00049       -0.28125       -0.21875       -0.21875
 BRILLOUIN|   838           0.00049       -0.28125       -0.21875       -0.15625
 BRILLOUIN|   839           0.00049       -0.28125       -0.21875       -0.09375
 BRILLOUIN|   840           0.00049       -0.28125       -0.21875       -0.03125
 BRILLOUIN|   841           0.00049       -0.28125       -0.21875        0.03125
 BRILLOUIN|   842           0.00049       -0.28125       -0.21875        0.09375
 BRILLOUIN|   843           0.00049       -0.28125       -0.21875        0.15625
 BRILLOUIN|   844           0.00049       -0.28125       -0.21875        0.21875
[...]
 MP_Sync        1863277552
 MP_Alltoall     655668086
 MP_SendRecv         30988                   5533.
 MP_ISendRecv        31877                   5451.
 MP_Wait           3258371
 MP_comm_split   270641722
 MP_ISend         47427940                   1496.
 MP_IRecv         16669732                   1311.
 -------------------------------------------------------------------------------


 -------------------------------------------------------------------------------
 -                                                                             -
 -                           R E F E R E N C E S                               -
 -                                                                             -
 -------------------------------------------------------------------------------
 
 CP2K version 2025.1 (Development Version), the CP2K developers group (2025).
 CP2K is freely available from https://www.cp2k.org/ .
 
 M. Graml, K. Zollner, D. Hernangmez-Prez, P. E. Faria Junior, J. Wilhelm.
 J. Chem. Theory Comput. 20, 2202-2208 (2024).
 Low-scaling GW algorithm applied to twisted transition-metal dichalcogenide 
 heterobilayers.
 https://doi.org/10.1021/acs.jctc.3c01230

 T. D. Kuehne, M. Iannuzzi, M. Del Ben, V. V. Rybkin, P. Seewald, F. Stein, T. 
 Laino, R. Z. Khaliullin, O. Schuett, F. Schiffmann, D. Golze, J. Wilhelm, S. 
 Chulkov, M. H. Bani-Hashemian, V. Weber, U. Borstnik, M. Taillefumier, A. S. 
 Jakobovits, A. Lazzaro, H. Pabst, T. Mueller, R. Schade, M. Guidon, S. 
 Andermatt, N. Holmberg, G. K. Schenter, A. Hehn, A. Bussy, F. Belleflamme, G. 
 Tabacchi, A. Gloess, M. Lass, I. Bethune, C. J. Mundy, C. Plessl, M. Watkins, 
 J. VandeVondele, M. Krack, J. Hutter.
 J. Chem. Phys. 152, 194103 (2020).
 CP2K: An electronic structure and molecular dynamics software package - 
 Quickstep: Efficient and accurate electronic structure calculations.
 https://doi.org/10.1063/5.0007045

 A. Togo, I. Tanaka.
 arXiv, 1808.01590 (2018).
 Spglib : a software library for crystal symmetry search.

 O. Schuett, P. Messmer, J. Hutter, J. VandeVondele.
 Electronic Structure Calculations on Graphics Processing Units, 173-190 (2016).
 GPU-Accelerated Sparse Matrix-Matrix Multiplication for Linear Scaling Density 
 Functional Theory.
 https://doi.org/10.1002/9781118670712.ch8

 A. Heinecke, G. Henry, M. Hutchinson, H. Pabst.
 Proceedings of Intl. Supercomputing Conference, 981-991 (2016).
 LIBXSMM: Accelerating Small Matrix Multiplications by Runtime Code Generation.
 https://doi.org/10.1109/SC.2016.83

 J. Hutter, M. Iannuzzi, F. Schiffmann, J. VandeVondele.
 WIREs Comput Mol Sci. 4, 15-25 (2014).
 CP2K: atomistic simulations of condensed matter systems.
 https://doi.org/10.1002/wcms.1159

 U. Borstnik, J. VandeVondele, V. Weber, J. Hutter.
 Parallel Comput. 40, 47-58 (2014).
 Sparse matrix multiplication: The distributed block-compressed sparse row 
 library.
 https://doi.org/10.1016/j.parco.2014.03.012

 A. Marek, V. Blum, R. Johanni, V. Havu, B. Lang, T. Auckenthaler, A. Heinecke, 
 H. Bungartz, H. Lederer.
 J. Phys. Condens. Matter 26, 213201 (2014).
 The ELPA library: scalable parallel eigenvalue solutions for electronic 
 structure theory and computational science.
 https://doi.org/10.1088/0953-8984/26/21/213201

 J. VandeVondele, J. Hutter.
 J. Chem. Phys. 127, 114105 (2007).
 Gaussian basis sets for accurate calculations on molecular systems in gas and 
 condensed phases.
 https://doi.org/10.1063/1.2770708

 M. Krack.
 Theor. Chem. Acc. 114, 145-152 (2005).
 Pseudopotentials for H to Kr optimized for gradient-corrected 
 exchange-correlation functionals.
 https://doi.org/10.1007/s00214-005-0655-y

 M. Frigo, S. G. Johnson.
 Proc. IEEE 93, 216-231 (2005).
 The design and implementation of FFTW3.
 https://doi.org/10.1109/JPROC.2004.840301

 M. Krack, M. Parrinello.
 Phys. Chem. Chem. Phys. 2, 2105-2112 (2000).
 All-electron ab-initio molecular dynamics.
 https://doi.org/10.1039/b001167n

 G. Lippert, J. Hutter, M. Parrinello.
 Theor. Chem. Acc. 103, 124-140 (1999).
 The Gaussian and augmented-plane-wave density functional method for ab initio 
 molecular dynamics simulations.
 https://doi.org/10.1007/s002140050523

 C. Hartwigsen, S. Goedecker, J. Hutter.
 Phys. Rev. B 58, 3641-3662 (1998).
 Relativistic separable dual-space Gaussian pseudopotentials from H to Rn.
 https://doi.org/10.1103/PhysRevB.58.3641

 S. Goedecker, M. Teter, J. Hutter.
 Phys. Rev. B 54, 1703-1710 (1996).
 Separable dual-space Gaussian pseudopotentials.
 https://doi.org/10.1103/PhysRevB.54.1703

 J. P. Perdew, K. Burke, M. Ernzerhof.
 Phys. Rev. Lett. 77, 3865-3868 (1996).
 Generalized gradient approximation made simple.
 https://doi.org/10.1103/PhysRevLett.77.3865


 -------------------------------------------------------------------------------
 -                                                                             -
 -                                T I M I N G                                  -
 -                                                                             -
 -------------------------------------------------------------------------------
 SUBROUTINE                       CALLS  ASD         SELF TIME        TOTAL TIME
                                MAXIMUM       AVERAGE  MAXIMUM  AVERAGE  MAXIMUM
 CP2K                                 1  1.0     0.01     0.02 94857.39 94857.90
 qs_energies                          1  2.0     0.00     0.00 94849.81 94850.62
 qs_energies_properties               1  3.0     0.00     0.00 94072.84 94073.64
 post_scf_bandstructure               1  4.0     0.00     0.00 94072.84 94073.64
 gw                                   1  5.0     0.00     0.00 93796.75 93797.26
 gw_calc_small_cell_full_kp           1  6.0     0.00     0.04 93498.42 93499.12
 dbt_total                      ******* -1.8   986.76  1020.19 66969.58 68948.97
 dbt_contract                   ******* -1.2  1026.54  1056.09 53398.04 55184.92
 dbt_tas_multiply               ******* 13.0    82.97    89.07 49292.58 50947.62
 dbt_tas_total                  ******* 14.0  4744.77  4948.47 49241.54 50893.85
 compute_Sigma_c                      1  7.0     0.01     0.01 49474.59 49475.02
 compute_chi                          1  7.0     0.52     0.98 39851.92 39852.58
 contract_to_Sigma                 1491  8.0  5154.73  5527.18 36915.37 38059.11
 contract_M_occ_vir_to_chi          710  8.0  9714.72 10310.85 25667.28 26497.93
 dbt_tas_estimate_result_nze    ******* 13.5  1562.15  1636.40 24121.69 24993.70
 contract_to_Sigma_3c_x_G       *******  9.0   203.96   224.32 18295.84 18823.84
 contract_W                         781  8.0   264.79   274.60 14227.65 14659.63
 contract_to_Sigma_contract      246309  9.0   364.24   399.70 12765.13 13483.61
 dbt_copy                       ******* -0.3  1034.65  1089.23 12860.79 13300.62
 G_times_3c                      234580  8.0   260.02   268.75 12368.16 12705.11
 dbt_tas_dbm                    ******* 15.0    77.26    82.22 11984.29 12434.97
 dbm_multiply                   ******* 17.0 11811.58 12258.00 11811.58 12258.00
 reshape_mm_small               ******* 15.0  5901.74  6184.76 10966.81 11334.91
 get_t_3c_int                   ******* -8.4  1210.54  1295.16  8685.74  9139.69
 dbt_reshape                    ******* -7.7  5946.65  6313.08  7979.19  8418.37
 dbt_tas_create_split           *******  1.1   158.73   177.12  5887.64  6186.02
 dbt_tas_create_split_rows_or_c *******  2.1   608.79   641.51  5728.92  6019.54
 reshape_mm_compatible          ******* 15.0   833.71   868.06  5339.17  5585.87
 mp_sync                        ******* -0.2  3044.78  5571.73  3044.78  5571.73
 dbt_tas_mm_2                   ******* 16.0    40.22    42.76  5151.87  5412.42
 dbt_tas_mm_3T                  ******* 16.2    21.94    23.71  4211.78  4369.22
 dbt_tas_distribution_new       ******* -3.7  2095.83  2211.46  4030.47  4242.84
 add_R                          ******* -1.3  1952.31  2066.46  3982.89  4155.17
 change_split                   ******* 15.0   261.74   275.39  3734.65  3923.00
 compute_Sigma_x                      1  7.0     0.00     0.00  3663.80  3664.06
 dbt_tas_reshape                ******* 15.4   639.82   673.51  3437.70  3604.34
 dbt_tas_replicate              ******* 15.0  1379.57  1448.09  3204.50  3328.99
 is_cell_in_index_to_cell       ******* ****  3052.24  3160.94  3052.24  3160.94
 mp_cart_create                 ******* -2.1  2535.06  2657.99  2798.34  2927.15
 convert_to_new_pgrid           *******  0.3  1333.71  1440.75  2577.59  2733.56
 dbt_tas_reserve_blocks_index   *******  0.8   435.13   453.33  2608.38  2670.43
 dbt_tas_mm_1N                  ******* 15.5    11.95    14.04  2531.17  2628.90
 dbm_reserve_blocks             ******* -2.5  2537.38  2602.66  2537.38  2602.66
 dbt_tas_create_new             *******  3.4  1982.31  2186.98  1982.31  2186.98
 dbt_tas_copy                   ******* 12.7  1008.03  1166.65  1852.46  2132.01
 mp_comm_dup                    *******  0.6  1703.73  1806.35  1828.28  1934.28
 dbt_tas_reserve_blocks_templat ******* -5.8   653.89   725.48  1587.15  1697.60
 dbt_permute_index              *******  0.2  1399.36  1460.64  1596.43  1669.91
 dbt_reserve_blocks_index_array ******* -3.6   151.42   162.86  1500.38  1570.32
 dbt_remap                      6099368 11.0   560.37   594.35  1500.32  1558.62
 dbt_reserve_blocks_index       ******* -2.6   189.13   200.73  1357.20  1417.43
 mp_comm_split_direct           *******  3.1  1215.76  1286.37  1304.15  1375.72
 dbm_copy                       ******* -6.0  1243.88  1314.28  1243.88  1314.28
 mp_comm_free                   ******* -1.6  1191.72  1248.65  1191.72  1248.65
 dbt_tas_merge                  ******* 15.0   893.57   954.25  1160.51  1228.18
 dbt_tas_reshape_buffer_obtain  ******* 16.4   584.05   616.44  1111.31  1157.03
 dbt_tas_reshape_buffer_fill    ******* 16.4  1047.47  1096.15  1047.47  1096.15
 dbt_copy_nocomm                ******* 11.0   452.62   486.73   856.33   905.25
 dbt_align_index                ******* 11.5   140.08   150.98   811.39   859.36
 dbm_filter                     ******* ****   756.20   802.81   756.20   802.81
 scf_env_do_scf                       1  3.0     0.00     0.00   776.60   776.60
 scf_env_do_scf_inner_loop           47  4.0     0.02     0.03   776.60   776.60
 qs_scf_new_mos_kp                   47  5.0     0.00     0.00   763.15   763.18
 do_general_diag_kp                  47  6.0     0.92     1.01   763.15   763.18
 dbt_tas_mp_comm                ******* 13.2    75.91    79.86   643.57   677.35
 G_occ_vir                           41  8.0     0.36     0.43   660.11   672.34
 reshape_mm_template            ******* 15.5   390.69   410.71   623.37   650.54
 parallel_gemm_cfm               394196  8.8     0.22     0.27   618.61   632.11
 parallel_gemm_cfm_cosma         394196  9.8   618.39   631.90   618.39   631.90
 mp_alltoall_i22                1987567  9.6   585.15   627.24   585.15   627.24
 dbt_communicate_buffer         ******* -6.7   597.05   619.18   597.05   619.18
 dbm_scale                      *******  2.1   572.04   615.58   572.04   615.58
 dbm_add                        ******* 15.0   524.51   556.10   524.51   556.10
 mp_cart_get                    ******* -0.5   498.73   545.97   498.73   545.97
 dbt_destroy                    *******  0.7   479.66   497.81   508.19   527.09
 mp_comm_size                   ******* ****   479.03   514.59   479.03   514.59
 dbcsr_complete_redistribute     960587  9.2    17.22    42.14   442.62   459.45
 dbt_reserve_blocks_template    ******* 12.0   123.62   138.49   403.71   427.29
 dbcsr_desymmetrize_deep        1026980  8.0     7.90     8.97   413.63   425.70
 dbt_tas_reshape_get_coord      ******* 16.4   370.15   409.84   370.15   409.84
 dbt_distribution_new_expert    ******* 12.5    68.67    72.31   389.45   407.28
 mp_comm_rank                   ******* ****   358.77   394.08   358.77   394.08
 compute_QP_energies                  1  7.0     0.04     0.05   383.99   384.37
 trafo_to_k_and_nn                87990  8.0     0.27     0.34   383.50   383.89
 copy_dbcsr_to_fm                591676  7.7     3.31     3.53   345.07   353.30
 create_and_init_bs_env_for_gw        1  6.0     0.00     0.00   298.33   299.52
 fm_add_ikp_to_rs                167936  9.0   170.17   178.51   246.84   261.29
 mp_alltoall_i                  *******  1.0   235.56   248.85   235.56   248.85
 rskp_transform                  217652  7.1     2.86   248.76     2.86   248.76
 copy_fm_to_dbcsr                368911  9.0     1.03     1.09   218.52   248.02
 dbt_create_new                 6274873 12.0    43.61    46.55   223.47   233.21
 dbt_create_3c_R1_R2                 22  8.0    23.03    25.64   207.52   220.94
 dbt_create_template            *******  9.0   197.58   211.57   197.58   211.57
 kpoint_density_transform            47  7.0     0.34     0.37   204.02   204.08
 setup_parallelization_Delta_R        1  7.0     0.00     0.00   197.85   197.85
 compute_n_tensor_ops_Delta_R         1  8.0    47.71    63.47   197.80   197.80
 fm_to_local_tensor              175500  9.0     2.20     2.38   190.22   190.24
 dos_pdos_ldos                        1  5.0     0.01     0.02   177.07   177.36
 mp_max_i                       ******* -0.2   145.09   159.03   145.09   159.03
 SOC_ev                            8380  6.0     0.05     0.06   153.75   153.86
 mp_sum_l                       ******* -1.1   136.97   146.25   136.97   146.25
 fm_trafo_rs_to_ikp               87990  9.0    90.85    92.86   133.98   138.37
 dbt_tas_reshape_communicate_bu ******* 16.4    67.50    71.36   125.98   131.56
 compute_W_real_space                 1  7.0     0.08     0.55   124.13   124.78
 destroy_t_2d                        22  8.0    31.60    32.91   118.85   122.53
 dbt_tas_reshape_alltoall       ******* 16.4    63.48    69.58   110.07   117.54
 transform_dmat                   96256  8.0     1.25   109.83     1.25   109.83
 global_matrix_to_local_matrix   175500 10.0     1.53     2.60    96.65   106.14
 local_dbt_to_global_fm              31  8.0     0.19     0.21   102.52   102.52
 dbt_tas_communicate_buffer     ******* -3.5    91.83    99.20    91.83    99.20
 cp_cfm_heevd                     17512  7.5     0.01     0.01    98.04    98.55
 cp_cfm_heevd_base                17512  8.5    98.03    98.54    98.03    98.54
 mp_sum_iv                         8404  9.0    49.87    97.64    49.87    97.64
 dbt_pgrid_create_expert        ******* 13.5    14.71    15.84    89.16    93.61
 mp_bcast_i                     *******  3.1    75.52    87.35    75.52    87.35
 add_ikp_to_rs                  *******  2.5    80.66    87.09    80.66    87.09
 cp_fm_start_copy_general        577536  7.3     2.43     4.34    83.82    85.79
 compute_Minv_and_Vsqrt               1  8.0     0.00     0.00    81.82    82.47
 build_2c_coulomb_matrix_kp_sma       2  9.0     0.39     0.50    78.15    78.81
 mp_cart_sub                    1183391  9.7    77.17    77.33    77.17    77.33
 mp_allgather_i                 1155072  8.3    68.04    74.76    68.04    74.76
 rsmat_to_kp                      25140  7.2     0.19     0.20    71.84    72.36
 compute_3c_integrals                 1  7.0     1.16     1.24    67.42    67.42
 dbcsr_finalize                 3275983 10.4    11.20    11.63    62.93    66.40
 mp_dims_create                 ******* -5.1    57.66    65.92    57.66    65.92
 mp_sum_i                       ******* 16.0    63.05    65.63    63.05    65.63
 dbt_nd_mp_comm                 6274868 12.0     9.18     9.77    59.52    62.58
 create_and_init_bs_env               1  5.0     0.00     0.00    62.43    62.43
 compute_cfm_mo_coeff_kp_and_ei       1  6.0     0.01     0.01    62.43    62.43
 dbt_tas_replicate_communicate_ ******* 15.9    31.95    34.34    54.60    57.96
 build_3c_integrals                   1  8.0    39.50    40.06    54.96    55.77
 add_rs_to_ikp                  ******* -4.1    50.57    54.65    50.57    54.65
 dbt_tas_replicate_alltoall     ******* 15.9    28.52    33.28    47.86    54.03
 mp_waitall_1                   3049121 10.1    43.23    53.46    43.23    53.46
 send_data                       175500 11.0     0.11     0.13    40.05    49.86
 communicate_buffer              175500 12.0     0.80    14.56    39.95    49.75
 dbt_tas_merge_alltoall         ******* 16.0    25.83    28.44    45.08    48.74
 local_dbt_to_global_mat         104625  9.0     0.66     0.72    35.67    48.74
 mp_alltoall_d11v               5962701 10.1    17.87    46.39    17.87    46.39
 send_sizes_1                    175500 11.0     0.10     0.11    40.15    41.15
 dbt_tas_merge_communicate_buff ******* 16.0    27.36    28.99    38.05    40.53
 dbt_buffer_get_index           ******* -4.0    36.60    40.13    36.60    40.13
 dbt_distribution_destroy       ******* 12.5    29.39    31.99    36.90    39.79
 mp_cart_rank                   ******* 15.9    35.29    39.68    35.29    39.68
 build_2c_coulomb_matrix_kp_sma  294912 10.0    37.03    39.42    37.03    39.42
 fm_MWM_R_t_to_local_tensor_W_R      10  8.0     0.03     0.03    38.77    38.77
 get_V_tr_R                          14  8.9     0.11     0.12    36.05    36.61
 soc                                  1  5.0     0.00     0.00    36.59    36.59
 cp_cfm_geeig_canon                4190  7.0     0.02     0.02    36.43    36.55
 H_KS_spinor_kp                       1  6.0     0.03     0.03    36.46    36.47
 dbcsr_merge_all                1222876 11.4    20.88    23.40    32.52    34.60
 mp_alltoall_i11v               3908741  9.9    27.22    32.78    27.22    32.78
 local_matrix_to_global_matrix   104625 10.0     0.19     0.25    15.93    30.10
 dbcsr_filter_anytype            829748 10.9     2.96     3.26    25.95    28.29
 mult_W_with_Minv                    10  8.0     0.02     0.02    27.53    27.55
 add_V_L                         294912 10.0     1.52    25.32     1.52    25.32
 compute_proj_mo_on_kind           4190  6.0     0.05     0.06    22.41    22.56
 trafo_V_xc_R_to_kp                   1  7.0     0.02     0.02    22.08    22.08
 mp_sum_dv                       113276  8.7    18.24    21.29    18.24    21.29
 dbt_create_matrix               175500 10.0     1.00     1.03    18.46    18.97
 mp_sum_dm                       294958 10.0    15.96    18.84    15.96    18.84
 dbcsr_iterator_start           7299665 10.3    13.96    14.51    15.21    15.79
 dbcsr_work_create              2249856  9.9     9.67    10.71    14.75    15.69
 dbcsr_work_destroy_all         2249856 10.8     8.88     9.56    13.62    14.38
 set_blocks                      104625 11.0     1.24     3.70     8.60    13.28
 get_data                        175500 11.0     2.96    12.22     3.21    12.55
 dbcsr_create_new               3313827  9.3     9.69    10.46    11.46    12.21
 mp_bcast_iv                    2310183  8.3    10.01    11.35    10.01    11.35
 get_Minv_Vtr_Minv_R                  1  8.0     0.01     0.01    10.63    11.19
 dbcsr_data_release             ******* 11.6     8.79    11.07     8.79    11.07
 copy_fm_to_dbcsr_bc             368911 10.0     3.18     3.37    10.68    11.02
 trafo_rs_to_ikp                   2432  8.3     2.60     2.76    10.04    10.52
 tree_to_linear_d                962571 12.2     8.59     9.65     8.59     9.65
 -------------------------------------------------------------------------------

 The number of warnings for this run is : 0
 
 -------------------------------------------------------------------------------
  **** **** ******  **  PROGRAM ENDED AT                 2025-02-19 09:58:17.614
 ***** ** ***  *** **   PROGRAM RAN ON                    n2lcn0103.ab2021.local
 **    ****   ******    PROGRAM RAN BY                                  metdyn02
 ***** **    ** ** **   PROGRAM PROCESS ID                               1442257
  **** **  *******  **  PROGRAM STOPPED IN /scratch/hpc-prf-metdyn/metdyn02_Remi
                                           /08_3D/05_AlP
