SIRIUS 7.5.2, git hash: https://api.github.com/repos/electronic-structure/SIRIUS/git/ref/tags/v7.5.2
 DBCSR| CPU Multiplication driver                                           XSMM (U)
 DBCSR| Multrec recursion limit                                              512 (U)
 DBCSR| Multiplication stack size                                           1000 (D)
 DBCSR| Maximum elements for images                                    UNLIMITED (U)
 DBCSR| Multiplicative factor virtual images                                   1 (U)
 DBCSR| Use multiplication densification                                       T (D)
 DBCSR| Multiplication size stacks                                             3 (U)
 DBCSR| Use memory pool for CPU allocation                                     F (U)
 DBCSR| Number of 3D layers                                               SINGLE (U)
 DBCSR| Use MPI memory allocation                                              F (U)
 DBCSR| Use RMA algorithm                                                      F (U)
 DBCSR| Use Communication thread                                               T (U)
 DBCSR| Communication thread load                                             30 (D)
 DBCSR| MPI: My process id                                                     0
 DBCSR| MPI: Number of processes                                             128
 DBCSR| OMP: Current number of threads                                        16
 DBCSR| OMP: Max number of threads                                            16
 DBCSR| Split modifier for TAS multiplication algorithm                  1.0E+00 (U)


  **** **** ******  **  PROGRAM STARTED AT               2025-02-18 00:21:44.308
 ***** ** ***  *** **   PROGRAM STARTED ON                             n2lcn0132
 **    ****   ******    PROGRAM STARTED BY                              metdyn02
 ***** **    ** ** **   PROGRAM PROCESS ID                                326932
  **** **  *******  **  PROGRAM STARTED IN /scratch/hpc-prf-metdyn/metdyn02_Remi
                                           /08_3D/09_ZnO

 CP2K| version string:                 CP2K version 2025.1 (Development Version)
 CP2K| source code revision number:                                  git:a2ea924
 CP2K| cp2kflags: omp libint fftw3 libxc libgrpp elpa parallel scalapack mpi_f08
 CP2K|             cosma xsmm plumed2 spglib sirius libvori libbqb libvdwxc hdf5
 CP2K| is freely available from                            https://www.cp2k.org/
 CP2K| Program compiled at                          Sat Feb  1 00:09:14 CET 2025
 CP2K| Program compiled on                                              n2login1
 CP2K| Program compiled for                                                local
 CP2K| Data directory path    /opt/software/pc2/EB-SW/software/CP2K/2024.1-foss-
 CP2K| Input file name                                                    GW.inp

 GLOBAL| Force Environment number                                              1
 GLOBAL| Basis set file name            /scratch/hpc-prf-metdyn/metdyn02_Remi/BA
 GLOBAL| Potential file name            /pc2/groups/hpc-prf-metdyn/metdyn02_Remi
 GLOBAL| MM Potential file name                                     MM_POTENTIAL
 GLOBAL| Coordinate file name                                      __STD_INPUT__
 GLOBAL| Method name                                                        CP2K
 GLOBAL| Project name                                                        ZnO
 GLOBAL| Run type                                                         ENERGY
 GLOBAL| FFT library                                                       FFTW3
 GLOBAL| Diagonalization library                                            ELPA
 GLOBAL| DGEMM library                                                      BLAS
 GLOBAL| Minimum number of eigenvectors for ELPA usage                        16
 GLOBAL| Orthonormality check for eigenvectors                          DISABLED
 GLOBAL| Matrix multiplication library                                     COSMA
 GLOBAL| All-to-all communication in single precision                          F
 GLOBAL| FFTs using library dependent lengths                                  F
 GLOBAL| Grid backend                                                       AUTO
 GLOBAL| Global print level                                               MEDIUM
 GLOBAL| MPI I/O enabled                                                       T
 GLOBAL| Total number of message passing processes                           128
 GLOBAL| Number of threads for this process                                   16
 GLOBAL| This output is from process                                           0
 GLOBAL| OpenMP stack size per thread (OMP_STACKSIZE)                    default
 GLOBAL| CPU model name                          AMD EPYC 7763 64-Core Processor
 GLOBAL| CPUID                                                              1002

 MEMORY| system memory details [Kb]
 MEMORY|                        rank 0           min           max       average
 MEMORY| MemTotal           1056622248    1056622240    1056622248    1056622246
 MEMORY| MemFree            1045517160    1035950680    1046475084    1042699946
 MEMORY| Buffers                221232         20720        290864        175308
 MEMORY| Cached                4754160       3953740      12998936       6835494
 MEMORY| Slab                  1451432       1318292       2260492       1892072
 MEMORY| SReclaimable           222928        222928        471348        359906
 MEMORY| MemLikelyFree      1050715480    1049402576    1051055052    1050070655


 *** Fundamental physical constants (SI units) ***

 *** Literature: B. J. Mohr and B. N. Taylor,
 ***             CODATA recommended values of the fundamental physical
 ***             constants: 2006, Web Version 5.1
 ***             http://physics.nist.gov/constants

 Speed of light in vacuum [m/s]                             2.99792458000000E+08
 Magnetic constant or permeability of vacuum [N/A**2]       1.25663706143592E-06
 Electric constant or permittivity of vacuum [F/m]          8.85418781762039E-12
 Planck constant (h) [J*s]                                  6.62606896000000E-34
 Planck constant (h-bar) [J*s]                              1.05457162825177E-34
 Elementary charge [C]                                      1.60217648700000E-19
 Electron mass [kg]                                         9.10938215000000E-31
 Electron g factor [ ]                                     -2.00231930436220E+00
 Proton mass [kg]                                           1.67262163700000E-27
 Fine-structure constant                                    7.29735253760000E-03
 Rydberg constant [1/m]                                     1.09737315685270E+07
 Avogadro constant [1/mol]                                  6.02214179000000E+23
 Boltzmann constant [J/K]                                   1.38065040000000E-23
 Atomic mass unit [kg]                                      1.66053878200000E-27
 Bohr radius [m]                                            5.29177208590000E-11

 *** Conversion factors ***

 [u] -> [a.u.]                                              1.82288848426455E+03
 [Angstrom] -> [Bohr] = [a.u.]                              1.88972613288564E+00
 [a.u.] = [Bohr] -> [Angstrom]                              5.29177208590000E-01
 [a.u.] -> [s]                                              2.41888432650478E-17
 [a.u.] -> [fs]                                             2.41888432650478E-02
 [a.u.] -> [J]                                              4.35974393937059E-18
 [a.u.] -> [N]                                              8.23872205491840E-08
 [a.u.] -> [K]                                              3.15774647902944E+05
 [a.u.] -> [kJ/mol]                                         2.62549961709828E+03
 [a.u.] -> [kcal/mol]                                       6.27509468713739E+02
 [a.u.] -> [Pa]                                             2.94210107994716E+13
 [a.u.] -> [bar]                                            2.94210107994716E+08
 [a.u.] -> [atm]                                            2.90362800883016E+08
 [a.u.] -> [eV]                                             2.72113838565563E+01
 [a.u.] -> [Hz]                                             6.57968392072181E+15
 [a.u.] -> [1/cm] (wave numbers)                            2.19474631370540E+05
 [a.u./Bohr**2] -> [1/cm]                                   5.14048714338585E+03
 

 CELL_TOP| Volume [angstrom^3]:                                        47.630477
 CELL_TOP| Vector a [angstrom     3.250     0.000     0.000   |a| =     3.250000
 CELL_TOP| Vector b [angstrom    -1.625     2.815     0.000   |b| =     3.250000
 CELL_TOP| Vector c [angstrom     0.000     0.000     5.207   |c| =     5.207000
 CELL_TOP| Angle (b,c), alpha [degree]:                                90.000000
 CELL_TOP| Angle (a,c), beta  [degree]:                                90.000000
 CELL_TOP| Angle (a,b), gamma [degree]:                               120.000000
 CELL_TOP| Numerically orthorhombic:                                          NO
 CELL_TOP| Periodicity                                                       XYZ

 GENERATE|  Preliminary Number of Bonds generated:                             0
 GENERATE|  Achieved consistency in connectivity generation.

 CELL| Volume [angstrom^3]:                                            47.630477
 CELL| Vector a [angstrom]:       3.250     0.000     0.000   |a| =     3.250000
 CELL| Vector b [angstrom]:      -1.625     2.815     0.000   |b| =     3.250000
 CELL| Vector c [angstrom]:       0.000     0.000     5.207   |c| =     5.207000
 CELL| Angle (b,c), alpha [degree]:                                    90.000000
 CELL| Angle (a,c), beta  [degree]:                                    90.000000
 CELL| Angle (a,b), gamma [degree]:                                   120.000000
 CELL| Numerically orthorhombic:                                              NO
 CELL| Periodicity                                                           XYZ

 CELL_REF| Volume [angstrom^3]:                                        47.630477
 CELL_REF| Vector a [angstrom     3.250     0.000     0.000   |a| =     3.250000
 CELL_REF| Vector b [angstrom    -1.625     2.815     0.000   |b| =     3.250000
 CELL_REF| Vector c [angstrom     0.000     0.000     5.207   |c| =     5.207000
 CELL_REF| Angle (b,c), alpha [degree]:                                90.000000
 CELL_REF| Angle (a,c), beta  [degree]:                                90.000000
 CELL_REF| Angle (a,b), gamma [degree]:                               120.000000
 CELL_REF| Numerically orthorhombic:                                          NO
 CELL_REF| Periodicity                                                       XYZ

 *******************************************************************************
                                    Kpoints
 *******************************************************************************
 BRILLOUIN| K-point scheme                                        Monkhorst-Pack
 BRILLOUIN| K-Point grid                                            16   16   16
 BRILLOUIN| Accuracy in Symmetry determination                      0.100000E-05
 BRILLOUIN| K-Point point group symmetrization                               OFF
 BRILLOUIN| Wavefunction type                                            COMPLEX
 BRILLOUIN| List of Kpoints [2 Pi/Bohr]                                     2048
 BRILLOUIN| Number           Weight            X              Y              Z
 BRILLOUIN|     1           0.00049       -0.46875       -0.46875       -0.46875
 BRILLOUIN|     2           0.00049       -0.46875       -0.46875       -0.40625
 BRILLOUIN|     3           0.00049       -0.46875       -0.46875       -0.34375
 BRILLOUIN|     4           0.00049       -0.46875       -0.46875       -0.28125
 BRILLOUIN|     5           0.00049       -0.46875       -0.46875       -0.21875
 BRILLOUIN|     6           0.00049       -0.46875       -0.46875       -0.15625
 BRILLOUIN|     7           0.00049       -0.46875       -0.46875       -0.09375
 BRILLOUIN|     8           0.00049       -0.46875       -0.46875       -0.03125
 BRILLOUIN|     9           0.00049       -0.46875       -0.46875        0.03125
 BRILLOUIN|    10           0.00049       -0.46875       -0.46875        0.09375
 BRILLOUIN|    11           0.00049       -0.46875       -0.46875        0.15625
 BRILLOUIN|    12           0.00049       -0.46875       -0.46875        0.21875
 BRILLOUIN|    13           0.00049       -0.46875       -0.46875        0.28125
 BRILLOUIN|    14           0.00049       -0.46875       -0.46875        0.34375
 BRILLOUIN|    15           0.00049       -0.46875       -0.46875        0.40625
 BRILLOUIN|    16           0.00049       -0.46875       -0.46875        0.46875
 BRILLOUIN|    17           0.00049       -0.46875       -0.40625       -0.46875
 BRILLOUIN|    18           0.00049       -0.46875       -0.40625       -0.40625
 BRILLOUIN|    19           0.00049       -0.46875       -0.40625       -0.34375
 BRILLOUIN|    20           0.00049       -0.46875       -0.40625       -0.28125
 BRILLOUIN|    21           0.00049       -0.46875       -0.40625       -0.21875
 BRILLOUIN|    22           0.00049       -0.46875       -0.40625       -0.15625
 BRILLOUIN|    23           0.00049       -0.46875       -0.40625       -0.09375
 BRILLOUIN|    24           0.00049       -0.46875       -0.40625       -0.03125
 BRILLOUIN|    25           0.00049       -0.46875       -0.40625        0.03125
 BRILLOUIN|    26           0.00049       -0.46875       -0.40625        0.09375
 BRILLOUIN|    27           0.00049       -0.46875       -0.40625        0.15625
 BRILLOUIN|    28           0.00049       -0.46875       -0.40625        0.21875
 BRILLOUIN|    29           0.00049       -0.46875       -0.40625        0.28125
 BRILLOUIN|    30           0.00049       -0.46875       -0.40625        0.34375
 BRILLOUIN|    31           0.00049       -0.46875       -0.40625        0.40625
 BRILLOUIN|    32           0.00049       -0.46875       -0.40625        0.46875
 BRILLOUIN|    33           0.00049       -0.46875       -0.34375       -0.46875
 BRILLOUIN|    34           0.00049       -0.46875       -0.34375       -0.40625
 BRILLOUIN|    35           0.00049       -0.46875       -0.34375       -0.34375
 BRILLOUIN|    36           0.00049       -0.46875       -0.34375       -0.28125
 BRILLOUIN|    37           0.00049       -0.46875       -0.34375       -0.21875
 BRILLOUIN|    38           0.00049       -0.46875       -0.34375       -0.15625
 BRILLOUIN|    39           0.00049       -0.46875       -0.34375       -0.09375
 BRILLOUIN|    40           0.00049       -0.46875       -0.34375       -0.03125
 BRILLOUIN|    41           0.00049       -0.46875       -0.34375        0.03125
 BRILLOUIN|    42           0.00049       -0.46875       -0.34375        0.09375
 BRILLOUIN|    43           0.00049       -0.46875       -0.34375        0.15625
 BRILLOUIN|    44           0.00049       -0.46875       -0.34375        0.21875
 BRILLOUIN|    45           0.00049       -0.46875       -0.34375        0.28125
 BRILLOUIN|    46           0.00049       -0.46875       -0.34375        0.34375
 BRILLOUIN|    47           0.00049       -0.46875       -0.34375        0.40625
 BRILLOUIN|    48           0.00049       -0.46875       -0.34375        0.46875
 BRILLOUIN|    49           0.00049       -0.46875       -0.28125       -0.46875
 BRILLOUIN|    50           0.00049       -0.46875       -0.28125       -0.40625
 BRILLOUIN|    51           0.00049       -0.46875       -0.28125       -0.34375
 BRILLOUIN|    52           0.00049       -0.46875       -0.28125       -0.28125
 BRILLOUIN|    53           0.00049       -0.46875       -0.28125       -0.21875
 BRILLOUIN|    54           0.00049       -0.46875       -0.28125       -0.15625
 BRILLOUIN|    55           0.00049       -0.46875       -0.28125       -0.09375
 BRILLOUIN|    56           0.00049       -0.46875       -0.28125       -0.03125
 BRILLOUIN|    57           0.00049       -0.46875       -0.28125        0.03125
 BRILLOUIN|    58           0.00049       -0.46875       -0.28125        0.09375
 BRILLOUIN|    59           0.00049       -0.46875       -0.28125        0.15625
 BRILLOUIN|    60           0.00049       -0.46875       -0.28125        0.21875
 BRILLOUIN|    61           0.00049       -0.46875       -0.28125        0.28125
 BRILLOUIN|    62           0.00049       -0.46875       -0.28125        0.34375
 BRILLOUIN|    63           0.00049       -0.46875       -0.28125        0.40625
 BRILLOUIN|    64           0.00049       -0.46875       -0.28125        0.46875
 BRILLOUIN|    65           0.00049       -0.46875       -0.21875       -0.46875
 BRILLOUIN|    66           0.00049       -0.46875       -0.21875       -0.40625
 BRILLOUIN|    67           0.00049       -0.46875       -0.21875       -0.34375
 BRILLOUIN|    68           0.00049       -0.46875       -0.21875       -0.28125
 BRILLOUIN|    69           0.00049       -0.46875       -0.21875       -0.21875
 BRILLOUIN|    70           0.00049       -0.46875       -0.21875       -0.15625
 BRILLOUIN|    71           0.00049       -0.46875       -0.21875       -0.09375
 BRILLOUIN|    72           0.00049       -0.46875       -0.21875       -0.03125
 BRILLOUIN|    73           0.00049       -0.46875       -0.21875        0.03125
 BRILLOUIN|    74           0.00049       -0.46875       -0.21875        0.09375
 BRILLOUIN|    75           0.00049       -0.46875       -0.21875        0.15625
 BRILLOUIN|    76           0.00049       -0.46875       -0.21875        0.21875
 BRILLOUIN|    77           0.00049       -0.46875       -0.21875        0.28125
 BRILLOUIN|    78           0.00049       -0.46875       -0.21875        0.34375
 BRILLOUIN|    79           0.00049       -0.46875       -0.21875        0.40625
 BRILLOUIN|    80           0.00049       -0.46875       -0.21875        0.46875
 BRILLOUIN|    81           0.00049       -0.46875       -0.15625       -0.46875
 BRILLOUIN|    82           0.00049       -0.46875       -0.15625       -0.40625
 BRILLOUIN|    83           0.00049       -0.46875       -0.15625       -0.34375
 BRILLOUIN|    84           0.00049       -0.46875       -0.15625       -0.28125
 BRILLOUIN|    85           0.00049       -0.46875       -0.15625       -0.21875
 BRILLOUIN|    86           0.00049       -0.46875       -0.15625       -0.15625
 BRILLOUIN|    87           0.00049       -0.46875       -0.15625       -0.09375
 BRILLOUIN|    88           0.00049       -0.46875       -0.15625       -0.03125
 BRILLOUIN|    89           0.00049       -0.46875       -0.15625        0.03125
 BRILLOUIN|    90           0.00049       -0.46875       -0.15625        0.09375
 BRILLOUIN|    91           0.00049       -0.46875       -0.15625        0.15625
 BRILLOUIN|    92           0.00049       -0.46875       -0.15625        0.21875
 BRILLOUIN|    93           0.00049       -0.46875       -0.15625        0.28125
 BRILLOUIN|    94           0.00049       -0.46875       -0.15625        0.34375
 BRILLOUIN|    95           0.00049       -0.46875       -0.15625        0.40625
 BRILLOUIN|    96           0.00049       -0.46875       -0.15625        0.46875
 BRILLOUIN|    97           0.00049       -0.46875       -0.09375       -0.46875
 BRILLOUIN|    98           0.00049       -0.46875       -0.09375       -0.40625
 BRILLOUIN|    99           0.00049       -0.46875       -0.09375       -0.34375
 BRILLOUIN|   100           0.00049       -0.46875       -0.09375       -0.28125
 BRILLOUIN|   101           0.00049       -0.46875       -0.09375       -0.21875
 BRILLOUIN|   102           0.00049       -0.46875       -0.09375       -0.15625
 BRILLOUIN|   103           0.00049       -0.46875       -0.09375       -0.09375
 BRILLOUIN|   104           0.00049       -0.46875       -0.09375       -0.03125
 BRILLOUIN|   105           0.00049       -0.46875       -0.09375        0.03125
 BRILLOUIN|   106           0.00049       -0.46875       -0.09375        0.09375
 BRILLOUIN|   107           0.00049       -0.46875       -0.09375        0.15625
 BRILLOUIN|   108           0.00049       -0.46875       -0.09375        0.21875
 BRILLOUIN|   109           0.00049       -0.46875       -0.09375        0.28125
 BRILLOUIN|   110           0.00049       -0.46875       -0.09375        0.34375
 BRILLOUIN|   111           0.00049       -0.46875       -0.09375        0.40625
 BRILLOUIN|   112           0.00049       -0.46875       -0.09375        0.46875
 BRILLOUIN|   113           0.00049       -0.46875       -0.03125       -0.46875
 BRILLOUIN|   114           0.00049       -0.46875       -0.03125       -0.40625
 BRILLOUIN|   115           0.00049       -0.46875       -0.03125       -0.34375
 BRILLOUIN|   116           0.00049       -0.46875       -0.03125       -0.28125
 BRILLOUIN|   117           0.00049       -0.46875       -0.03125       -0.21875
 BRILLOUIN|   118           0.00049       -0.46875       -0.03125       -0.15625
 BRILLOUIN|   119           0.00049       -0.46875       -0.03125       -0.09375
 BRILLOUIN|   120           0.00049       -0.46875       -0.03125       -0.03125
 BRILLOUIN|   121           0.00049       -0.46875       -0.03125        0.03125
 BRILLOUIN|   122           0.00049       -0.46875       -0.03125        0.09375
 BRILLOUIN|   123           0.00049       -0.46875       -0.03125        0.15625
 BRILLOUIN|   124           0.00049       -0.46875       -0.03125        0.21875
 BRILLOUIN|   125           0.00049       -0.46875       -0.03125        0.28125
 BRILLOUIN|   126           0.00049       -0.46875       -0.03125        0.34375
 BRILLOUIN|   127           0.00049       -0.46875       -0.03125        0.40625
 BRILLOUIN|   128           0.00049       -0.46875       -0.03125        0.46875
 BRILLOUIN|   129           0.00049       -0.46875        0.03125       -0.46875
 BRILLOUIN|   130           0.00049       -0.46875        0.03125       -0.40625
 BRILLOUIN|   131           0.00049       -0.46875        0.03125       -0.34375
 BRILLOUIN|   132           0.00049       -0.46875        0.03125       -0.28125
 BRILLOUIN|   133           0.00049       -0.46875        0.03125       -0.21875
 BRILLOUIN|   134           0.00049       -0.46875        0.03125       -0.15625
 BRILLOUIN|   135           0.00049       -0.46875        0.03125       -0.09375
 BRILLOUIN|   136           0.00049       -0.46875        0.03125       -0.03125
 BRILLOUIN|   137           0.00049       -0.46875        0.03125        0.03125
 BRILLOUIN|   138           0.00049       -0.46875        0.03125        0.09375
 BRILLOUIN|   139           0.00049       -0.46875        0.03125        0.15625
 BRILLOUIN|   140           0.00049       -0.46875        0.03125        0.21875
 BRILLOUIN|   141           0.00049       -0.46875        0.03125        0.28125
 BRILLOUIN|   142           0.00049       -0.46875        0.03125        0.34375
 BRILLOUIN|   143           0.00049       -0.46875        0.03125        0.40625
 BRILLOUIN|   144           0.00049       -0.46875        0.03125        0.46875
 BRILLOUIN|   145           0.00049       -0.46875        0.09375       -0.46875
 BRILLOUIN|   146           0.00049       -0.46875        0.09375       -0.40625
 BRILLOUIN|   147           0.00049       -0.46875        0.09375       -0.34375
 BRILLOUIN|   148           0.00049       -0.46875        0.09375       -0.28125
 BRILLOUIN|   149           0.00049       -0.46875        0.09375       -0.21875
 BRILLOUIN|   150           0.00049       -0.46875        0.09375       -0.15625
 BRILLOUIN|   151           0.00049       -0.46875        0.09375       -0.09375
 BRILLOUIN|   152           0.00049       -0.46875        0.09375       -0.03125
 BRILLOUIN|   153           0.00049       -0.46875        0.09375        0.03125
 BRILLOUIN|   154           0.00049       -0.46875        0.09375        0.09375
 BRILLOUIN|   155           0.00049       -0.46875        0.09375        0.15625
 BRILLOUIN|   156           0.00049       -0.46875        0.09375        0.21875
 BRILLOUIN|   157           0.00049       -0.46875        0.09375        0.28125
 BRILLOUIN|   158           0.00049       -0.46875        0.09375        0.34375
 BRILLOUIN|   159           0.00049       -0.46875        0.09375        0.40625
 BRILLOUIN|   160           0.00049       -0.46875        0.09375        0.46875
 BRILLOUIN|   161           0.00049       -0.46875        0.15625       -0.46875
 BRILLOUIN|   162           0.00049       -0.46875        0.15625       -0.40625
 BRILLOUIN|   163           0.00049       -0.46875        0.15625       -0.34375
 BRILLOUIN|   164           0.00049       -0.46875        0.15625       -0.28125
 BRILLOUIN|   165           0.00049       -0.46875        0.15625       -0.21875
 BRILLOUIN|   166           0.00049       -0.46875        0.15625       -0.15625
 BRILLOUIN|   167           0.00049       -0.46875        0.15625       -0.09375
 BRILLOUIN|   168           0.00049       -0.46875        0.15625       -0.03125
 BRILLOUIN|   169           0.00049       -0.46875        0.15625        0.03125
 BRILLOUIN|   170           0.00049       -0.46875        0.15625        0.09375
 BRILLOUIN|   171           0.00049       -0.46875        0.15625        0.15625
 BRILLOUIN|   172           0.00049       -0.46875        0.15625        0.21875
 BRILLOUIN|   173           0.00049       -0.46875        0.15625        0.28125
 BRILLOUIN|   174           0.00049       -0.46875        0.15625        0.34375
 BRILLOUIN|   175           0.00049       -0.46875        0.15625        0.40625
 BRILLOUIN|   176           0.00049       -0.46875        0.15625        0.46875
 BRILLOUIN|   177           0.00049       -0.46875        0.21875       -0.46875
 BRILLOUIN|   178           0.00049       -0.46875        0.21875       -0.40625
 BRILLOUIN|   179           0.00049       -0.46875        0.21875       -0.34375
 BRILLOUIN|   180           0.00049       -0.46875        0.21875       -0.28125
 BRILLOUIN|   181           0.00049       -0.46875        0.21875       -0.21875
 BRILLOUIN|   182           0.00049       -0.46875        0.21875       -0.15625
 BRILLOUIN|   183           0.00049       -0.46875        0.21875       -0.09375
 BRILLOUIN|   184           0.00049       -0.46875        0.21875       -0.03125
 BRILLOUIN|   185           0.00049       -0.46875        0.21875        0.03125
 BRILLOUIN|   186           0.00049       -0.46875        0.21875        0.09375
 BRILLOUIN|   187           0.00049       -0.46875        0.21875        0.15625
 BRILLOUIN|   188           0.00049       -0.46875        0.21875        0.21875
 BRILLOUIN|   189           0.00049       -0.46875        0.21875        0.28125
 BRILLOUIN|   190           0.00049       -0.46875        0.21875        0.34375
 BRILLOUIN|   191           0.00049       -0.46875        0.21875        0.40625
 BRILLOUIN|   192           0.00049       -0.46875        0.21875        0.46875
 BRILLOUIN|   193           0.00049       -0.46875        0.28125       -0.46875
 BRILLOUIN|   194           0.00049       -0.46875        0.28125       -0.40625
 BRILLOUIN|   195           0.00049       -0.46875        0.28125       -0.34375
 BRILLOUIN|   196           0.00049       -0.46875        0.28125       -0.28125
 BRILLOUIN|   197           0.00049       -0.46875        0.28125       -0.21875
 BRILLOUIN|   198           0.00049       -0.46875        0.28125       -0.15625
 BRILLOUIN|   199           0.00049       -0.46875        0.28125       -0.09375
 BRILLOUIN|   200           0.00049       -0.46875        0.28125       -0.03125
 BRILLOUIN|   201           0.00049       -0.46875        0.28125        0.03125
 BRILLOUIN|   202           0.00049       -0.46875        0.28125        0.09375
 BRILLOUIN|   203           0.00049       -0.46875        0.28125        0.15625
 BRILLOUIN|   204           0.00049       -0.46875        0.28125        0.21875
 BRILLOUIN|   205           0.00049       -0.46875        0.28125        0.28125
 BRILLOUIN|   206           0.00049       -0.46875        0.28125        0.34375
 BRILLOUIN|   207           0.00049       -0.46875        0.28125        0.40625
 BRILLOUIN|   208           0.00049       -0.46875        0.28125        0.46875
 BRILLOUIN|   209           0.00049       -0.46875        0.34375       -0.46875
 BRILLOUIN|   210           0.00049       -0.46875        0.34375       -0.40625
 BRILLOUIN|   211           0.00049       -0.46875        0.34375       -0.34375
 BRILLOUIN|   212           0.00049       -0.46875        0.34375       -0.28125
 BRILLOUIN|   213           0.00049       -0.46875        0.34375       -0.21875
 BRILLOUIN|   214           0.00049       -0.46875        0.34375       -0.15625
 BRILLOUIN|   215           0.00049       -0.46875        0.34375       -0.09375
 BRILLOUIN|   216           0.00049       -0.46875        0.34375       -0.03125
 BRILLOUIN|   217           0.00049       -0.46875        0.34375        0.03125
 BRILLOUIN|   218           0.00049       -0.46875        0.34375        0.09375
 BRILLOUIN|   219           0.00049       -0.46875        0.34375        0.15625
 BRILLOUIN|   220           0.00049       -0.46875        0.34375        0.21875
 BRILLOUIN|   221           0.00049       -0.46875        0.34375        0.28125
 BRILLOUIN|   222           0.00049       -0.46875        0.34375        0.34375
 BRILLOUIN|   223           0.00049       -0.46875        0.34375        0.40625
 BRILLOUIN|   224           0.00049       -0.46875        0.34375        0.46875
 BRILLOUIN|   225           0.00049       -0.46875        0.40625       -0.46875
 BRILLOUIN|   226           0.00049       -0.46875        0.40625       -0.40625
 BRILLOUIN|   227           0.00049       -0.46875        0.40625       -0.34375
 BRILLOUIN|   228           0.00049       -0.46875        0.40625       -0.28125
 BRILLOUIN|   229           0.00049       -0.46875        0.40625       -0.21875
 BRILLOUIN|   230           0.00049       -0.46875        0.40625       -0.15625
 BRILLOUIN|   231           0.00049       -0.46875        0.40625       -0.09375
 BRILLOUIN|   232           0.00049       -0.46875        0.40625       -0.03125
 BRILLOUIN|   233           0.00049       -0.46875        0.40625        0.03125
 BRILLOUIN|   234           0.00049       -0.46875        0.40625        0.09375
 BRILLOUIN|   235           0.00049       -0.46875        0.40625        0.15625
 BRILLOUIN|   236           0.00049       -0.46875        0.40625        0.21875
 BRILLOUIN|   237           0.00049       -0.46875        0.40625        0.28125
 BRILLOUIN|   238           0.00049       -0.46875        0.40625        0.34375
 BRILLOUIN|   239           0.00049       -0.46875        0.40625        0.40625
 BRILLOUIN|   240           0.00049       -0.46875        0.40625        0.46875
 BRILLOUIN|   241           0.00049       -0.46875        0.46875       -0.46875
 BRILLOUIN|   242           0.00049       -0.46875        0.46875       -0.40625
 BRILLOUIN|   243           0.00049       -0.46875        0.46875       -0.34375
 BRILLOUIN|   244           0.00049       -0.46875        0.46875       -0.28125
 BRILLOUIN|   245           0.00049       -0.46875        0.46875       -0.21875
 BRILLOUIN|   246           0.00049       -0.46875        0.46875       -0.15625
 BRILLOUIN|   247           0.00049       -0.46875        0.46875       -0.09375
 BRILLOUIN|   248           0.00049       -0.46875        0.46875       -0.03125
 BRILLOUIN|   249           0.00049       -0.46875        0.46875        0.03125
 BRILLOUIN|   250           0.00049       -0.46875        0.46875        0.09375
 BRILLOUIN|   251           0.00049       -0.46875        0.46875        0.15625
 BRILLOUIN|   252           0.00049       -0.46875        0.46875        0.21875
 BRILLOUIN|   253           0.00049       -0.46875        0.46875        0.28125
 BRILLOUIN|   254           0.00049       -0.46875        0.46875        0.34375
 BRILLOUIN|   255           0.00049       -0.46875        0.46875        0.40625
 BRILLOUIN|   256           0.00049       -0.46875        0.46875        0.46875
 BRILLOUIN|   257           0.00049       -0.40625       -0.46875       -0.46875
 BRILLOUIN|   258           0.00049       -0.40625       -0.46875       -0.40625
 BRILLOUIN|   259           0.00049       -0.40625       -0.46875       -0.34375
 BRILLOUIN|   260           0.00049       -0.40625       -0.46875       -0.28125
 BRILLOUIN|   261           0.00049       -0.40625       -0.46875       -0.21875
 BRILLOUIN|   262           0.00049       -0.40625       -0.46875       -0.15625
 BRILLOUIN|   263           0.00049       -0.40625       -0.46875       -0.09375
 BRILLOUIN|   264           0.00049       -0.40625       -0.46875       -0.03125
 BRILLOUIN|   265           0.00049       -0.40625       -0.46875        0.03125
 BRILLOUIN|   266           0.00049       -0.40625       -0.46875        0.09375
 BRILLOUIN|   267           0.00049       -0.40625       -0.46875        0.15625
 BRILLOUIN|   268           0.00049       -0.40625       -0.46875        0.21875
 BRILLOUIN|   269           0.00049       -0.40625       -0.46875        0.28125
 BRILLOUIN|   270           0.00049       -0.40625       -0.46875        0.34375
 BRILLOUIN|   271           0.00049       -0.40625       -0.46875        0.40625
 BRILLOUIN|   272           0.00049       -0.40625       -0.46875        0.46875
 BRILLOUIN|   273           0.00049       -0.40625       -0.40625       -0.46875
 BRILLOUIN|   274           0.00049       -0.40625       -0.40625       -0.40625
 BRILLOUIN|   275           0.00049       -0.40625       -0.40625       -0.34375
 BRILLOUIN|   276           0.00049       -0.40625       -0.40625       -0.28125
 BRILLOUIN|   277           0.00049       -0.40625       -0.40625       -0.21875
 BRILLOUIN|   278           0.00049       -0.40625       -0.40625       -0.15625
 BRILLOUIN|   279           0.00049       -0.40625       -0.40625       -0.09375
 BRILLOUIN|   280           0.00049       -0.40625       -0.40625       -0.03125
 BRILLOUIN|   281           0.00049       -0.40625       -0.40625        0.03125
 BRILLOUIN|   282           0.00049       -0.40625       -0.40625        0.09375
 BRILLOUIN|   283           0.00049       -0.40625       -0.40625        0.15625
 BRILLOUIN|   284           0.00049       -0.40625       -0.40625        0.21875
 BRILLOUIN|   285           0.00049       -0.40625       -0.40625        0.28125
 BRILLOUIN|   286           0.00049       -0.40625       -0.40625        0.34375
 BRILLOUIN|   287           0.00049       -0.40625       -0.40625        0.40625
 BRILLOUIN|   288           0.00049       -0.40625       -0.40625        0.46875
 BRILLOUIN|   289           0.00049       -0.40625       -0.34375       -0.46875
 BRILLOUIN|   290           0.00049       -0.40625       -0.34375       -0.40625
 BRILLOUIN|   291           0.00049       -0.40625       -0.34375       -0.34375
 BRILLOUIN|   292           0.00049       -0.40625       -0.34375       -0.28125
 BRILLOUIN|   293           0.00049       -0.40625       -0.34375       -0.21875
 BRILLOUIN|   294           0.00049       -0.40625       -0.34375       -0.15625
 BRILLOUIN|   295           0.00049       -0.40625       -0.34375       -0.09375
 BRILLOUIN|   296           0.00049       -0.40625       -0.34375       -0.03125
 BRILLOUIN|   297           0.00049       -0.40625       -0.34375        0.03125
 BRILLOUIN|   298           0.00049       -0.40625       -0.34375        0.09375
 BRILLOUIN|   299           0.00049       -0.40625       -0.34375        0.15625
 BRILLOUIN|   300           0.00049       -0.40625       -0.34375        0.21875
 BRILLOUIN|   301           0.00049       -0.40625       -0.34375        0.28125
 BRILLOUIN|   302           0.00049       -0.40625       -0.34375        0.34375
 BRILLOUIN|   303           0.00049       -0.40625       -0.34375        0.40625
 BRILLOUIN|   304           0.00049       -0.40625       -0.34375        0.46875
 BRILLOUIN|   305           0.00049       -0.40625       -0.28125       -0.46875
 BRILLOUIN|   306           0.00049       -0.40625       -0.28125       -0.40625
 BRILLOUIN|   307           0.00049       -0.40625       -0.28125       -0.34375
 BRILLOUIN|   308           0.00049       -0.40625       -0.28125       -0.28125
 BRILLOUIN|   309           0.00049       -0.40625       -0.28125       -0.21875
 BRILLOUIN|   310           0.00049       -0.40625       -0.28125       -0.15625
 BRILLOUIN|   311           0.00049       -0.40625       -0.28125       -0.09375
 BRILLOUIN|   312           0.00049       -0.40625       -0.28125       -0.03125
 BRILLOUIN|   313           0.00049       -0.40625       -0.28125        0.03125
 BRILLOUIN|   314           0.00049       -0.40625       -0.28125        0.09375
 BRILLOUIN|   315           0.00049       -0.40625       -0.28125        0.15625
 BRILLOUIN|   316           0.00049       -0.40625       -0.28125        0.21875
 BRILLOUIN|   317           0.00049       -0.40625       -0.28125        0.28125
 BRILLOUIN|   318           0.00049       -0.40625       -0.28125        0.34375
 BRILLOUIN|   319           0.00049       -0.40625       -0.28125        0.40625
 BRILLOUIN|   320           0.00049       -0.40625       -0.28125        0.46875
 BRILLOUIN|   321           0.00049       -0.40625       -0.21875       -0.46875
 BRILLOUIN|   322           0.00049       -0.40625       -0.21875       -0.40625
 BRILLOUIN|   323           0.00049       -0.40625       -0.21875       -0.34375
 BRILLOUIN|   324           0.00049       -0.40625       -0.21875       -0.28125
 BRILLOUIN|   325           0.00049       -0.40625       -0.21875       -0.21875
 BRILLOUIN|   326           0.00049       -0.40625       -0.21875       -0.15625
 BRILLOUIN|   327           0.00049       -0.40625       -0.21875       -0.09375
 BRILLOUIN|   328           0.00049       -0.40625       -0.21875       -0.03125
 BRILLOUIN|   329           0.00049       -0.40625       -0.21875        0.03125
 BRILLOUIN|   330           0.00049       -0.40625       -0.21875        0.09375
 BRILLOUIN|   331           0.00049       -0.40625       -0.21875        0.15625
 BRILLOUIN|   332           0.00049       -0.40625       -0.21875        0.21875
 BRILLOUIN|   333           0.00049       -0.40625       -0.21875        0.28125
 BRILLOUIN|   334           0.00049       -0.40625       -0.21875        0.34375
 BRILLOUIN|   335           0.00049       -0.40625       -0.21875        0.40625
 BRILLOUIN|   336           0.00049       -0.40625       -0.21875        0.46875
 BRILLOUIN|   337           0.00049       -0.40625       -0.15625       -0.46875
 BRILLOUIN|   338           0.00049       -0.40625       -0.15625       -0.40625
 BRILLOUIN|   339           0.00049       -0.40625       -0.15625       -0.34375
 BRILLOUIN|   340           0.00049       -0.40625       -0.15625       -0.28125
 BRILLOUIN|   341           0.00049       -0.40625       -0.15625       -0.21875
 BRILLOUIN|   342           0.00049       -0.40625       -0.15625       -0.15625
 BRILLOUIN|   343           0.00049       -0.40625       -0.15625       -0.09375
 BRILLOUIN|   344           0.00049       -0.40625       -0.15625       -0.03125
 BRILLOUIN|   345           0.00049       -0.40625       -0.15625        0.03125
 BRILLOUIN|   346           0.00049       -0.40625       -0.15625        0.09375
 BRILLOUIN|   347           0.00049       -0.40625       -0.15625        0.15625
 BRILLOUIN|   348           0.00049       -0.40625       -0.15625        0.21875
 BRILLOUIN|   349           0.00049       -0.40625       -0.15625        0.28125
 BRILLOUIN|   350           0.00049       -0.40625       -0.15625        0.34375
 BRILLOUIN|   351           0.00049       -0.40625       -0.15625        0.40625
 BRILLOUIN|   352           0.00049       -0.40625       -0.15625        0.46875
 BRILLOUIN|   353           0.00049       -0.40625       -0.09375       -0.46875
 BRILLOUIN|   354           0.00049       -0.40625       -0.09375       -0.40625
 BRILLOUIN|   355           0.00049       -0.40625       -0.09375       -0.34375
 BRILLOUIN|   356           0.00049       -0.40625       -0.09375       -0.28125
 BRILLOUIN|   357           0.00049       -0.40625       -0.09375       -0.21875
 BRILLOUIN|   358           0.00049       -0.40625       -0.09375       -0.15625
 BRILLOUIN|   359           0.00049       -0.40625       -0.09375       -0.09375
 BRILLOUIN|   360           0.00049       -0.40625       -0.09375       -0.03125
 BRILLOUIN|   361           0.00049       -0.40625       -0.09375        0.03125
 BRILLOUIN|   362           0.00049       -0.40625       -0.09375        0.09375
 BRILLOUIN|   363           0.00049       -0.40625       -0.09375        0.15625
 BRILLOUIN|   364           0.00049       -0.40625       -0.09375        0.21875
 BRILLOUIN|   365           0.00049       -0.40625       -0.09375        0.28125
 BRILLOUIN|   366           0.00049       -0.40625       -0.09375        0.34375
 BRILLOUIN|   367           0.00049       -0.40625       -0.09375        0.40625
 BRILLOUIN|   368           0.00049       -0.40625       -0.09375        0.46875
 BRILLOUIN|   369           0.00049       -0.40625       -0.03125       -0.46875
 BRILLOUIN|   370           0.00049       -0.40625       -0.03125       -0.40625
 BRILLOUIN|   371           0.00049       -0.40625       -0.03125       -0.34375
 BRILLOUIN|   372           0.00049       -0.40625       -0.03125       -0.28125
 BRILLOUIN|   373           0.00049       -0.40625       -0.03125       -0.21875
 BRILLOUIN|   374           0.00049       -0.40625       -0.03125       -0.15625
 BRILLOUIN|   375           0.00049       -0.40625       -0.03125       -0.09375
 BRILLOUIN|   376           0.00049       -0.40625       -0.03125       -0.03125
 BRILLOUIN|   377           0.00049       -0.40625       -0.03125        0.03125
 BRILLOUIN|   378           0.00049       -0.40625       -0.03125        0.09375
 BRILLOUIN|   379           0.00049       -0.40625       -0.03125        0.15625
 BRILLOUIN|   380           0.00049       -0.40625       -0.03125        0.21875
 BRILLOUIN|   381           0.00049       -0.40625       -0.03125        0.28125
 BRILLOUIN|   382           0.00049       -0.40625       -0.03125        0.34375
 BRILLOUIN|   383           0.00049       -0.40625       -0.03125        0.40625
 BRILLOUIN|   384           0.00049       -0.40625       -0.03125        0.46875
 BRILLOUIN|   385           0.00049       -0.40625        0.03125       -0.46875
 BRILLOUIN|   386           0.00049       -0.40625        0.03125       -0.40625
 BRILLOUIN|   387           0.00049       -0.40625        0.03125       -0.34375
 BRILLOUIN|   388           0.00049       -0.40625        0.03125       -0.28125
 BRILLOUIN|   389           0.00049       -0.40625        0.03125       -0.21875
 BRILLOUIN|   390           0.00049       -0.40625        0.03125       -0.15625
 BRILLOUIN|   391           0.00049       -0.40625        0.03125       -0.09375
 BRILLOUIN|   392           0.00049       -0.40625        0.03125       -0.03125
 BRILLOUIN|   393           0.00049       -0.40625        0.03125        0.03125
 BRILLOUIN|   394           0.00049       -0.40625        0.03125        0.09375
 BRILLOUIN|   395           0.00049       -0.40625        0.03125        0.15625
 BRILLOUIN|   396           0.00049       -0.40625        0.03125        0.21875
 BRILLOUIN|   397           0.00049       -0.40625        0.03125        0.28125
 BRILLOUIN|   398           0.00049       -0.40625        0.03125        0.34375
 BRILLOUIN|   399           0.00049       -0.40625        0.03125        0.40625
 BRILLOUIN|   400           0.00049       -0.40625        0.03125        0.46875
 BRILLOUIN|   401           0.00049       -0.40625        0.09375       -0.46875
 BRILLOUIN|   402           0.00049       -0.40625        0.09375       -0.40625
 BRILLOUIN|   403           0.00049       -0.40625        0.09375       -0.34375
 BRILLOUIN|   404           0.00049       -0.40625        0.09375       -0.28125
 BRILLOUIN|   405           0.00049       -0.40625        0.09375       -0.21875
 BRILLOUIN|   406           0.00049       -0.40625        0.09375       -0.15625
 BRILLOUIN|   407           0.00049       -0.40625        0.09375       -0.09375
 BRILLOUIN|   408           0.00049       -0.40625        0.09375       -0.03125
 BRILLOUIN|   409           0.00049       -0.40625        0.09375        0.03125
 BRILLOUIN|   410           0.00049       -0.40625        0.09375        0.09375
 BRILLOUIN|   411           0.00049       -0.40625        0.09375        0.15625
 BRILLOUIN|   412           0.00049       -0.40625        0.09375        0.21875
 BRILLOUIN|   413           0.00049       -0.40625        0.09375        0.28125
 BRILLOUIN|   414           0.00049       -0.40625        0.09375        0.34375
 BRILLOUIN|   415           0.00049       -0.40625        0.09375        0.40625
 BRILLOUIN|   416           0.00049       -0.40625        0.09375        0.46875
 BRILLOUIN|   417           0.00049       -0.40625        0.15625       -0.46875
 BRILLOUIN|   418           0.00049       -0.40625        0.15625       -0.40625
 BRILLOUIN|   419           0.00049       -0.40625        0.15625       -0.34375
 BRILLOUIN|   420           0.00049       -0.40625        0.15625       -0.28125
 BRILLOUIN|   421           0.00049       -0.40625        0.15625       -0.21875
 BRILLOUIN|   422           0.00049       -0.40625        0.15625       -0.15625
 BRILLOUIN|   423           0.00049       -0.40625        0.15625       -0.09375
 BRILLOUIN|   424           0.00049       -0.40625        0.15625       -0.03125
 BRILLOUIN|   425           0.00049       -0.40625        0.15625        0.03125
 BRILLOUIN|   426           0.00049       -0.40625        0.15625        0.09375
 BRILLOUIN|   427           0.00049       -0.40625        0.15625        0.15625
 BRILLOUIN|   428           0.00049       -0.40625        0.15625        0.21875
 BRILLOUIN|   429           0.00049       -0.40625        0.15625        0.28125
 BRILLOUIN|   430           0.00049       -0.40625        0.15625        0.34375
 BRILLOUIN|   431           0.00049       -0.40625        0.15625        0.40625
 BRILLOUIN|   432           0.00049       -0.40625        0.15625        0.46875
 BRILLOUIN|   433           0.00049       -0.40625        0.21875       -0.46875
 BRILLOUIN|   434           0.00049       -0.40625        0.21875       -0.40625
 BRILLOUIN|   435           0.00049       -0.40625        0.21875       -0.34375
 BRILLOUIN|   436           0.00049       -0.40625        0.21875       -0.28125
 BRILLOUIN|   437           0.00049       -0.40625        0.21875       -0.21875
 BRILLOUIN|   438           0.00049       -0.40625        0.21875       -0.15625
 BRILLOUIN|   439           0.00049       -0.40625        0.21875       -0.09375
 BRILLOUIN|   440           0.00049       -0.40625        0.21875       -0.03125
 BRILLOUIN|   441           0.00049       -0.40625        0.21875        0.03125
 BRILLOUIN|   442           0.00049       -0.40625        0.21875        0.09375
 BRILLOUIN|   443           0.00049       -0.40625        0.21875        0.15625
 BRILLOUIN|   444           0.00049       -0.40625        0.21875        0.21875
 BRILLOUIN|   445           0.00049       -0.40625        0.21875        0.28125
 BRILLOUIN|   446           0.00049       -0.40625        0.21875        0.34375
 BRILLOUIN|   447           0.00049       -0.40625        0.21875        0.40625
 BRILLOUIN|   448           0.00049       -0.40625        0.21875        0.46875
 BRILLOUIN|   449           0.00049       -0.40625        0.28125       -0.46875
 BRILLOUIN|   450           0.00049       -0.40625        0.28125       -0.40625
 BRILLOUIN|   451           0.00049       -0.40625        0.28125       -0.34375
 BRILLOUIN|   452           0.00049       -0.40625        0.28125       -0.28125
 BRILLOUIN|   453           0.00049       -0.40625        0.28125       -0.21875
 BRILLOUIN|   454           0.00049       -0.40625        0.28125       -0.15625
 BRILLOUIN|   455           0.00049       -0.40625        0.28125       -0.09375
 BRILLOUIN|   456           0.00049       -0.40625        0.28125       -0.03125
 BRILLOUIN|   457           0.00049       -0.40625        0.28125        0.03125
 BRILLOUIN|   458           0.00049       -0.40625        0.28125        0.09375
 BRILLOUIN|   459           0.00049       -0.40625        0.28125        0.15625
 BRILLOUIN|   460           0.00049       -0.40625        0.28125        0.21875
 BRILLOUIN|   461           0.00049       -0.40625        0.28125        0.28125
 BRILLOUIN|   462           0.00049       -0.40625        0.28125        0.34375
 BRILLOUIN|   463           0.00049       -0.40625        0.28125        0.40625
 BRILLOUIN|   464           0.00049       -0.40625        0.28125        0.46875
 BRILLOUIN|   465           0.00049       -0.40625        0.34375       -0.46875
 BRILLOUIN|   466           0.00049       -0.40625        0.34375       -0.40625
 BRILLOUIN|   467           0.00049       -0.40625        0.34375       -0.34375
 BRILLOUIN|   468           0.00049       -0.40625        0.34375       -0.28125
 BRILLOUIN|   469           0.00049       -0.40625        0.34375       -0.21875
 BRILLOUIN|   470           0.00049       -0.40625        0.34375       -0.15625
 BRILLOUIN|   471           0.00049       -0.40625        0.34375       -0.09375
 BRILLOUIN|   472           0.00049       -0.40625        0.34375       -0.03125
 BRILLOUIN|   473           0.00049       -0.40625        0.34375        0.03125
 BRILLOUIN|   474           0.00049       -0.40625        0.34375        0.09375
 BRILLOUIN|   475           0.00049       -0.40625        0.34375        0.15625
 BRILLOUIN|   476           0.00049       -0.40625        0.34375        0.21875
 BRILLOUIN|   477           0.00049       -0.40625        0.34375        0.28125
 BRILLOUIN|   478           0.00049       -0.40625        0.34375        0.34375
 BRILLOUIN|   479           0.00049       -0.40625        0.34375        0.40625
 BRILLOUIN|   480           0.00049       -0.40625        0.34375        0.46875
 BRILLOUIN|   481           0.00049       -0.40625        0.40625       -0.46875
 BRILLOUIN|   482           0.00049       -0.40625        0.40625       -0.40625
 BRILLOUIN|   483           0.00049       -0.40625        0.40625       -0.34375
 BRILLOUIN|   484           0.00049       -0.40625        0.40625       -0.28125
 BRILLOUIN|   485           0.00049       -0.40625        0.40625       -0.21875
 BRILLOUIN|   486           0.00049       -0.40625        0.40625       -0.15625
 BRILLOUIN|   487           0.00049       -0.40625        0.40625       -0.09375
 BRILLOUIN|   488           0.00049       -0.40625        0.40625       -0.03125
 BRILLOUIN|   489           0.00049       -0.40625        0.40625        0.03125
 BRILLOUIN|   490           0.00049       -0.40625        0.40625        0.09375
 BRILLOUIN|   491           0.00049       -0.40625        0.40625        0.15625
 BRILLOUIN|   492           0.00049       -0.40625        0.40625        0.21875
 BRILLOUIN|   493           0.00049       -0.40625        0.40625        0.28125
 BRILLOUIN|   494           0.00049       -0.40625        0.40625        0.34375
 BRILLOUIN|   495           0.00049       -0.40625        0.40625        0.40625
 BRILLOUIN|   496           0.00049       -0.40625        0.40625        0.46875
 BRILLOUIN|   497           0.00049       -0.40625        0.46875       -0.46875
 BRILLOUIN|   498           0.00049       -0.40625        0.46875       -0.40625
 BRILLOUIN|   499           0.00049       -0.40625        0.46875       -0.34375
 BRILLOUIN|   500           0.00049       -0.40625        0.46875       -0.28125
 BRILLOUIN|   501           0.00049       -0.40625        0.46875       -0.21875
 BRILLOUIN|   502           0.00049       -0.40625        0.46875       -0.15625
 BRILLOUIN|   503           0.00049       -0.40625        0.46875       -0.09375
 BRILLOUIN|   504           0.00049       -0.40625        0.46875       -0.03125
 BRILLOUIN|   505           0.00049       -0.40625        0.46875        0.03125
 BRILLOUIN|   506           0.00049       -0.40625        0.46875        0.09375
 BRILLOUIN|   507           0.00049       -0.40625        0.46875        0.15625
 BRILLOUIN|   508           0.00049       -0.40625        0.46875        0.21875
 BRILLOUIN|   509           0.00049       -0.40625        0.46875        0.28125
 BRILLOUIN|   510           0.00049       -0.40625        0.46875        0.34375
 BRILLOUIN|   511           0.00049       -0.40625        0.46875        0.40625
 BRILLOUIN|   512           0.00049       -0.40625        0.46875        0.46875
 BRILLOUIN|   513           0.00049       -0.34375       -0.46875       -0.46875
 BRILLOUIN|   514           0.00049       -0.34375       -0.46875       -0.40625
 BRILLOUIN|   515           0.00049       -0.34375       -0.46875       -0.34375
 BRILLOUIN|   516           0.00049       -0.34375       -0.46875       -0.28125
 BRILLOUIN|   517           0.00049       -0.34375       -0.46875       -0.21875
 BRILLOUIN|   518           0.00049       -0.34375       -0.46875       -0.15625
 BRILLOUIN|   519           0.00049       -0.34375       -0.46875       -0.09375
 BRILLOUIN|   520           0.00049       -0.34375       -0.46875       -0.03125
 BRILLOUIN|   521           0.00049       -0.34375       -0.46875        0.03125
 BRILLOUIN|   522           0.00049       -0.34375       -0.46875        0.09375
 BRILLOUIN|   523           0.00049       -0.34375       -0.46875        0.15625
 BRILLOUIN|   524           0.00049       -0.34375       -0.46875        0.21875
 BRILLOUIN|   525           0.00049       -0.34375       -0.46875        0.28125
 BRILLOUIN|   526           0.00049       -0.34375       -0.46875        0.34375
 BRILLOUIN|   527           0.00049       -0.34375       -0.46875        0.40625
 BRILLOUIN|   528           0.00049       -0.34375       -0.46875        0.46875
 BRILLOUIN|   529           0.00049       -0.34375       -0.40625       -0.46875
 BRILLOUIN|   530           0.00049       -0.34375       -0.40625       -0.40625
 BRILLOUIN|   531           0.00049       -0.34375       -0.40625       -0.34375
 BRILLOUIN|   532           0.00049       -0.34375       -0.40625       -0.28125
 BRILLOUIN|   533           0.00049       -0.34375       -0.40625       -0.21875
 BRILLOUIN|   534           0.00049       -0.34375       -0.40625       -0.15625
 BRILLOUIN|   535           0.00049       -0.34375       -0.40625       -0.09375
 BRILLOUIN|   536           0.00049       -0.34375       -0.40625       -0.03125
 BRILLOUIN|   537           0.00049       -0.34375       -0.40625        0.03125
 BRILLOUIN|   538           0.00049       -0.34375       -0.40625        0.09375
 BRILLOUIN|   539           0.00049       -0.34375       -0.40625        0.15625
 BRILLOUIN|   540           0.00049       -0.34375       -0.40625        0.21875
 BRILLOUIN|   541           0.00049       -0.34375       -0.40625        0.28125
 BRILLOUIN|   542           0.00049       -0.34375       -0.40625        0.34375
 BRILLOUIN|   543           0.00049       -0.34375       -0.40625        0.40625
 BRILLOUIN|   544           0.00049       -0.34375       -0.40625        0.46875
 BRILLOUIN|   545           0.00049       -0.34375       -0.34375       -0.46875
 BRILLOUIN|   546           0.00049       -0.34375       -0.34375       -0.40625
 BRILLOUIN|   547           0.00049       -0.34375       -0.34375       -0.34375
 BRILLOUIN|   548           0.00049       -0.34375       -0.34375       -0.28125
 BRILLOUIN|   549           0.00049       -0.34375       -0.34375       -0.21875
 BRILLOUIN|   550           0.00049       -0.34375       -0.34375       -0.15625
 BRILLOUIN|   551           0.00049       -0.34375       -0.34375       -0.09375
 BRILLOUIN|   552           0.00049       -0.34375       -0.34375       -0.03125
 BRILLOUIN|   553           0.00049       -0.34375       -0.34375        0.03125
 BRILLOUIN|   554           0.00049       -0.34375       -0.34375        0.09375
 BRILLOUIN|   555           0.00049       -0.34375       -0.34375        0.15625
 BRILLOUIN|   556           0.00049       -0.34375       -0.34375        0.21875
 BRILLOUIN|   557           0.00049       -0.34375       -0.34375        0.28125
 BRILLOUIN|   558           0.00049       -0.34375       -0.34375        0.34375
 BRILLOUIN|   559           0.00049       -0.34375       -0.34375        0.40625
 BRILLOUIN|   560           0.00049       -0.34375       -0.34375        0.46875
 BRILLOUIN|   561           0.00049       -0.34375       -0.28125       -0.46875
 BRILLOUIN|   562           0.00049       -0.34375       -0.28125       -0.40625
 BRILLOUIN|   563           0.00049       -0.34375       -0.28125       -0.34375
 BRILLOUIN|   564           0.00049       -0.34375       -0.28125       -0.28125
 BRILLOUIN|   565           0.00049       -0.34375       -0.28125       -0.21875
 BRILLOUIN|   566           0.00049       -0.34375       -0.28125       -0.15625
 BRILLOUIN|   567           0.00049       -0.34375       -0.28125       -0.09375
 BRILLOUIN|   568           0.00049       -0.34375       -0.28125       -0.03125
 BRILLOUIN|   569           0.00049       -0.34375       -0.28125        0.03125
 BRILLOUIN|   570           0.00049       -0.34375       -0.28125        0.09375
 BRILLOUIN|   571           0.00049       -0.34375       -0.28125        0.15625
 BRILLOUIN|   572           0.00049       -0.34375       -0.28125        0.21875
 BRILLOUIN|   573           0.00049       -0.34375       -0.28125        0.28125
 BRILLOUIN|   574           0.00049       -0.34375       -0.28125        0.34375
 BRILLOUIN|   575           0.00049       -0.34375       -0.28125        0.40625
 BRILLOUIN|   576           0.00049       -0.34375       -0.28125        0.46875
 BRILLOUIN|   577           0.00049       -0.34375       -0.21875       -0.46875
 BRILLOUIN|   578           0.00049       -0.34375       -0.21875       -0.40625
 BRILLOUIN|   579           0.00049       -0.34375       -0.21875       -0.34375
 BRILLOUIN|   580           0.00049       -0.34375       -0.21875       -0.28125
 BRILLOUIN|   581           0.00049       -0.34375       -0.21875       -0.21875
 BRILLOUIN|   582           0.00049       -0.34375       -0.21875       -0.15625
 BRILLOUIN|   583           0.00049       -0.34375       -0.21875       -0.09375
 BRILLOUIN|   584           0.00049       -0.34375       -0.21875       -0.03125
 BRILLOUIN|   585           0.00049       -0.34375       -0.21875        0.03125
 BRILLOUIN|   586           0.00049       -0.34375       -0.21875        0.09375
 BRILLOUIN|   587           0.00049       -0.34375       -0.21875        0.15625
 BRILLOUIN|   588           0.00049       -0.34375       -0.21875        0.21875
 BRILLOUIN|   589           0.00049       -0.34375       -0.21875        0.28125
 BRILLOUIN|   590           0.00049       -0.34375       -0.21875        0.34375
 BRILLOUIN|   591           0.00049       -0.34375       -0.21875        0.40625
 BRILLOUIN|   592           0.00049       -0.34375       -0.21875        0.46875
 BRILLOUIN|   593           0.00049       -0.34375       -0.15625       -0.46875
 BRILLOUIN|   594           0.00049       -0.34375       -0.15625       -0.40625
 BRILLOUIN|   595           0.00049       -0.34375       -0.15625       -0.34375
 BRILLOUIN|   596           0.00049       -0.34375       -0.15625       -0.28125
 BRILLOUIN|   597           0.00049       -0.34375       -0.15625       -0.21875
 BRILLOUIN|   598           0.00049       -0.34375       -0.15625       -0.15625
 BRILLOUIN|   599           0.00049       -0.34375       -0.15625       -0.09375
 BRILLOUIN|   600           0.00049       -0.34375       -0.15625       -0.03125
 BRILLOUIN|   601           0.00049       -0.34375       -0.15625        0.03125
 BRILLOUIN|   602           0.00049       -0.34375       -0.15625        0.09375
 BRILLOUIN|   603           0.00049       -0.34375       -0.15625        0.15625
 BRILLOUIN|   604           0.00049       -0.34375       -0.15625        0.21875
 BRILLOUIN|   605           0.00049       -0.34375       -0.15625        0.28125
 BRILLOUIN|   606           0.00049       -0.34375       -0.15625        0.34375
 BRILLOUIN|   607           0.00049       -0.34375       -0.15625        0.40625
 BRILLOUIN|   608           0.00049       -0.34375       -0.15625        0.46875
 BRILLOUIN|   609           0.00049       -0.34375       -0.09375       -0.46875
 BRILLOUIN|   610           0.00049       -0.34375       -0.09375       -0.40625
 BRILLOUIN|   611           0.00049       -0.34375       -0.09375       -0.34375
 BRILLOUIN|   612           0.00049       -0.34375       -0.09375       -0.28125
 BRILLOUIN|   613           0.00049       -0.34375       -0.09375       -0.21875
 BRILLOUIN|   614           0.00049       -0.34375       -0.09375       -0.15625
 BRILLOUIN|   615           0.00049       -0.34375       -0.09375       -0.09375
 BRILLOUIN|   616           0.00049       -0.34375       -0.09375       -0.03125
 BRILLOUIN|   617           0.00049       -0.34375       -0.09375        0.03125
 BRILLOUIN|   618           0.00049       -0.34375       -0.09375        0.09375
 BRILLOUIN|   619           0.00049       -0.34375       -0.09375        0.15625
 BRILLOUIN|   620           0.00049       -0.34375       -0.09375        0.21875
 BRILLOUIN|   621           0.00049       -0.34375       -0.09375        0.28125
 BRILLOUIN|   622           0.00049       -0.34375       -0.09375        0.34375
 BRILLOUIN|   623           0.00049       -0.34375       -0.09375        0.40625
 BRILLOUIN|   624           0.00049       -0.34375       -0.09375        0.46875
 BRILLOUIN|   625           0.00049       -0.34375       -0.03125       -0.46875
 BRILLOUIN|   626           0.00049       -0.34375       -0.03125       -0.40625
 BRILLOUIN|   627           0.00049       -0.34375       -0.03125       -0.34375
 BRILLOUIN|   628           0.00049       -0.34375       -0.03125       -0.28125
 BRILLOUIN|   629           0.00049       -0.34375       -0.03125       -0.21875
 BRILLOUIN|   630           0.00049       -0.34375       -0.03125       -0.15625
 BRILLOUIN|   631           0.00049       -0.34375       -0.03125       -0.09375
 BRILLOUIN|   632           0.00049       -0.34375       -0.03125       -0.03125
 BRILLOUIN|   633           0.00049       -0.34375       -0.03125        0.03125
 BRILLOUIN|   634           0.00049       -0.34375       -0.03125        0.09375
 BRILLOUIN|   635           0.00049       -0.34375       -0.03125        0.15625
 BRILLOUIN|   636           0.00049       -0.34375       -0.03125        0.21875
 BRILLOUIN|   637           0.00049       -0.34375       -0.03125        0.28125
 BRILLOUIN|   638           0.00049       -0.34375       -0.03125        0.34375
 BRILLOUIN|   639           0.00049       -0.34375       -0.03125        0.40625
 BRILLOUIN|   640           0.00049       -0.34375       -0.03125        0.46875
 BRILLOUIN|   641           0.00049       -0.34375        0.03125       -0.46875
 BRILLOUIN|   642           0.00049       -0.34375        0.03125       -0.40625
 BRILLOUIN|   643           0.00049       -0.34375        0.03125       -0.34375
 BRILLOUIN|   644           0.00049       -0.34375        0.03125       -0.28125
 BRILLOUIN|   645           0.00049       -0.34375        0.03125       -0.21875
 BRILLOUIN|   646           0.00049       -0.34375        0.03125       -0.15625
 BRILLOUIN|   647           0.00049       -0.34375        0.03125       -0.09375
 BRILLOUIN|   648           0.00049       -0.34375        0.03125       -0.03125
 BRILLOUIN|   649           0.00049       -0.34375        0.03125        0.03125
 BRILLOUIN|   650           0.00049       -0.34375        0.03125        0.09375
 BRILLOUIN|   651           0.00049       -0.34375        0.03125        0.15625
 BRILLOUIN|   652           0.00049       -0.34375        0.03125        0.21875
 BRILLOUIN|   653           0.00049       -0.34375        0.03125        0.28125
 BRILLOUIN|   654           0.00049       -0.34375        0.03125        0.34375
 BRILLOUIN|   655           0.00049       -0.34375        0.03125        0.40625
 BRILLOUIN|   656           0.00049       -0.34375        0.03125        0.46875
 BRILLOUIN|   657           0.00049       -0.34375        0.09375       -0.46875
 BRILLOUIN|   658           0.00049       -0.34375        0.09375       -0.40625
 BRILLOUIN|   659           0.00049       -0.34375        0.09375       -0.34375
 BRILLOUIN|   660           0.00049       -0.34375        0.09375       -0.28125
 BRILLOUIN|   661           0.00049       -0.34375        0.09375       -0.21875
 BRILLOUIN|   662           0.00049       -0.34375        0.09375       -0.15625
 BRILLOUIN|   663           0.00049       -0.34375        0.09375       -0.09375
 BRILLOUIN|   664           0.00049       -0.34375        0.09375       -0.03125
 BRILLOUIN|   665           0.00049       -0.34375        0.09375        0.03125
 BRILLOUIN|   666           0.00049       -0.34375        0.09375        0.09375
 BRILLOUIN|   667           0.00049       -0.34375        0.09375        0.15625
 BRILLOUIN|   668           0.00049       -0.34375        0.09375        0.21875
 BRILLOUIN|   669           0.00049       -0.34375        0.09375        0.28125
 BRILLOUIN|   670           0.00049       -0.34375        0.09375        0.34375
 BRILLOUIN|   671           0.00049       -0.34375        0.09375        0.40625
 BRILLOUIN|   672           0.00049       -0.34375        0.09375        0.46875
 BRILLOUIN|   673           0.00049       -0.34375        0.15625       -0.46875
 BRILLOUIN|   674           0.00049       -0.34375        0.15625       -0.40625
 BRILLOUIN|   675           0.00049       -0.34375        0.15625       -0.34375
 BRILLOUIN|   676           0.00049       -0.34375        0.15625       -0.28125
 BRILLOUIN|   677           0.00049       -0.34375        0.15625       -0.21875
 BRILLOUIN|   678           0.00049       -0.34375        0.15625       -0.15625
 BRILLOUIN|   679           0.00049       -0.34375        0.15625       -0.09375
 BRILLOUIN|   680           0.00049       -0.34375        0.15625       -0.03125
 BRILLOUIN|   681           0.00049       -0.34375        0.15625        0.03125
 BRILLOUIN|   682           0.00049       -0.34375        0.15625        0.09375
 BRILLOUIN|   683           0.00049       -0.34375        0.15625        0.15625
 BRILLOUIN|   684           0.00049       -0.34375        0.15625        0.21875
 BRILLOUIN|   685           0.00049       -0.34375        0.15625        0.28125
 BRILLOUIN|   686           0.00049       -0.34375        0.15625        0.34375
 BRILLOUIN|   687           0.00049       -0.34375        0.15625        0.40625
 BRILLOUIN|   688           0.00049       -0.34375        0.15625        0.46875
 BRILLOUIN|   689           0.00049       -0.34375        0.21875       -0.46875
 BRILLOUIN|   690           0.00049       -0.34375        0.21875       -0.40625
 BRILLOUIN|   691           0.00049       -0.34375        0.21875       -0.34375
 BRILLOUIN|   692           0.00049       -0.34375        0.21875       -0.28125
 BRILLOUIN|   693           0.00049       -0.34375        0.21875       -0.21875
 BRILLOUIN|   694           0.00049       -0.34375        0.21875       -0.15625
 BRILLOUIN|   695           0.00049       -0.34375        0.21875       -0.09375
 BRILLOUIN|   696           0.00049       -0.34375        0.21875       -0.03125
 BRILLOUIN|   697           0.00049       -0.34375        0.21875        0.03125
 BRILLOUIN|   698           0.00049       -0.34375        0.21875        0.09375
 BRILLOUIN|   699           0.00049       -0.34375        0.21875        0.15625
 BRILLOUIN|   700           0.00049       -0.34375        0.21875        0.21875
 BRILLOUIN|   701           0.00049       -0.34375        0.21875        0.28125
 BRILLOUIN|   702           0.00049       -0.34375        0.21875        0.34375
 BRILLOUIN|   703           0.00049       -0.34375        0.21875        0.40625
 BRILLOUIN|   704           0.00049       -0.34375        0.21875        0.46875
 BRILLOUIN|   705           0.00049       -0.34375        0.28125       -0.46875
 BRILLOUIN|   706           0.00049       -0.34375        0.28125       -0.40625
 BRILLOUIN|   707           0.00049       -0.34375        0.28125       -0.34375
 BRILLOUIN|   708           0.00049       -0.34375        0.28125       -0.28125
 BRILLOUIN|   709           0.00049       -0.34375        0.28125       -0.21875
 BRILLOUIN|   710           0.00049       -0.34375        0.28125       -0.15625
 BRILLOUIN|   711           0.00049       -0.34375        0.28125       -0.09375
 BRILLOUIN|   712           0.00049       -0.34375        0.28125       -0.03125
 BRILLOUIN|   713           0.00049       -0.34375        0.28125        0.03125
 BRILLOUIN|   714           0.00049       -0.34375        0.28125        0.09375
 BRILLOUIN|   715           0.00049       -0.34375        0.28125        0.15625
 BRILLOUIN|   716           0.00049       -0.34375        0.28125        0.21875
 BRILLOUIN|   717           0.00049       -0.34375        0.28125        0.28125
 BRILLOUIN|   718           0.00049       -0.34375        0.28125        0.34375
 BRILLOUIN|   719           0.00049       -0.34375        0.28125        0.40625
 BRILLOUIN|   720           0.00049       -0.34375        0.28125        0.46875
 BRILLOUIN|   721           0.00049       -0.34375        0.34375       -0.46875
 BRILLOUIN|   722           0.00049       -0.34375        0.34375       -0.40625
 BRILLOUIN|   723           0.00049       -0.34375        0.34375       -0.34375
 BRILLOUIN|   724           0.00049       -0.34375        0.34375       -0.28125
 BRILLOUIN|   725           0.00049       -0.34375        0.34375       -0.21875
 BRILLOUIN|   726           0.00049       -0.34375        0.34375       -0.15625
 BRILLOUIN|   727           0.00049       -0.34375        0.34375       -0.09375
 BRILLOUIN|   728           0.00049       -0.34375        0.34375       -0.03125
 BRILLOUIN|   729           0.00049       -0.34375        0.34375        0.03125
 BRILLOUIN|   730           0.00049       -0.34375        0.34375        0.09375
 BRILLOUIN|   731           0.00049       -0.34375        0.34375        0.15625
 BRILLOUIN|   732           0.00049       -0.34375        0.34375        0.21875
 BRILLOUIN|   733           0.00049       -0.34375        0.34375        0.28125
 BRILLOUIN|   734           0.00049       -0.34375        0.34375        0.34375
 BRILLOUIN|   735           0.00049       -0.34375        0.34375        0.40625
 BRILLOUIN|   736           0.00049       -0.34375        0.34375        0.46875
 BRILLOUIN|   737           0.00049       -0.34375        0.40625       -0.46875
 BRILLOUIN|   738           0.00049       -0.34375        0.40625       -0.40625
 BRILLOUIN|   739           0.00049       -0.34375        0.40625       -0.34375
 BRILLOUIN|   740           0.00049       -0.34375        0.40625       -0.28125
 BRILLOUIN|   741           0.00049       -0.34375        0.40625       -0.21875
 BRILLOUIN|   742           0.00049       -0.34375        0.40625       -0.15625
 BRILLOUIN|   743           0.00049       -0.34375        0.40625       -0.09375
 BRILLOUIN|   744           0.00049       -0.34375        0.40625       -0.03125
 BRILLOUIN|   745           0.00049       -0.34375        0.40625        0.03125
 BRILLOUIN|   746           0.00049       -0.34375        0.40625        0.09375
 BRILLOUIN|   747           0.00049       -0.34375        0.40625        0.15625
 BRILLOUIN|   748           0.00049       -0.34375        0.40625        0.21875
 BRILLOUIN|   749           0.00049       -0.34375        0.40625        0.28125
 BRILLOUIN|   750           0.00049       -0.34375        0.40625        0.34375
 BRILLOUIN|   751           0.00049       -0.34375        0.40625        0.40625
 BRILLOUIN|   752           0.00049       -0.34375        0.40625        0.46875
 BRILLOUIN|   753           0.00049       -0.34375        0.46875       -0.46875
 BRILLOUIN|   754           0.00049       -0.34375        0.46875       -0.40625
 BRILLOUIN|   755           0.00049       -0.34375        0.46875       -0.34375
 BRILLOUIN|   756           0.00049       -0.34375        0.46875       -0.28125
 BRILLOUIN|   757           0.00049       -0.34375        0.46875       -0.21875
 BRILLOUIN|   758           0.00049       -0.34375        0.46875       -0.15625
 BRILLOUIN|   759           0.00049       -0.34375        0.46875       -0.09375
 BRILLOUIN|   760           0.00049       -0.34375        0.46875       -0.03125
 BRILLOUIN|   761           0.00049       -0.34375        0.46875        0.03125
 BRILLOUIN|   762           0.00049       -0.34375        0.46875        0.09375
 BRILLOUIN|   763           0.00049       -0.34375        0.46875        0.15625
 BRILLOUIN|   764           0.00049       -0.34375        0.46875        0.21875
 BRILLOUIN|   765           0.00049       -0.34375        0.46875        0.28125
 BRILLOUIN|   766           0.00049       -0.34375        0.46875        0.34375
 BRILLOUIN|   767           0.00049       -0.34375        0.46875        0.40625
 BRILLOUIN|   768           0.00049       -0.34375        0.46875        0.46875
 BRILLOUIN|   769           0.00049       -0.28125       -0.46875       -0.46875
 BRILLOUIN|   770           0.00049       -0.28125       -0.46875       -0.40625
 BRILLOUIN|   771           0.00049       -0.28125       -0.46875       -0.34375
 BRILLOUIN|   772           0.00049       -0.28125       -0.46875       -0.28125
 BRILLOUIN|   773           0.00049       -0.28125       -0.46875       -0.21875
 BRILLOUIN|   774           0.00049       -0.28125       -0.46875       -0.15625
 BRILLOUIN|   775           0.00049       -0.28125       -0.46875       -0.09375
 BRILLOUIN|   776           0.00049       -0.28125       -0.46875       -0.03125
 BRILLOUIN|   777           0.00049       -0.28125       -0.46875        0.03125
 BRILLOUIN|   778           0.00049       -0.28125       -0.46875        0.09375
 BRILLOUIN|   779           0.00049       -0.28125       -0.46875        0.15625
 BRILLOUIN|   780           0.00049       -0.28125       -0.46875        0.21875
 BRILLOUIN|   781           0.00049       -0.28125       -0.46875        0.28125
 BRILLOUIN|   782           0.00049       -0.28125       -0.46875        0.34375
 BRILLOUIN|   783           0.00049       -0.28125       -0.46875        0.40625
 BRILLOUIN|   784           0.00049       -0.28125       -0.46875        0.46875
 BRILLOUIN|   785           0.00049       -0.28125       -0.40625       -0.46875
 BRILLOUIN|   786           0.00049       -0.28125       -0.40625       -0.40625
 BRILLOUIN|   787           0.00049       -0.28125       -0.40625       -0.34375
 BRILLOUIN|   788           0.00049       -0.28125       -0.40625       -0.28125
 BRILLOUIN|   789           0.00049       -0.28125       -0.40625       -0.21875
 BRILLOUIN|   790           0.00049       -0.28125       -0.40625       -0.15625
 BRILLOUIN|   791           0.00049       -0.28125       -0.40625       -0.09375
 BRILLOUIN|   792           0.00049       -0.28125       -0.40625       -0.03125
 BRILLOUIN|   793           0.00049       -0.28125       -0.40625        0.03125
 BRILLOUIN|   794           0.00049       -0.28125       -0.40625        0.09375
 BRILLOUIN|   795           0.00049       -0.28125       -0.40625        0.15625
 BRILLOUIN|   796           0.00049       -0.28125       -0.40625        0.21875
 BRILLOUIN|   797           0.00049       -0.28125       -0.40625        0.28125
 BRILLOUIN|   798           0.00049       -0.28125       -0.40625        0.34375
 BRILLOUIN|   799           0.00049       -0.28125       -0.40625        0.40625
 BRILLOUIN|   800           0.00049       -0.28125       -0.40625        0.46875
 BRILLOUIN|   801           0.00049       -0.28125       -0.34375       -0.46875
 BRILLOUIN|   802           0.00049       -0.28125       -0.34375       -0.40625
 BRILLOUIN|   803           0.00049       -0.28125       -0.34375       -0.34375
 BRILLOUIN|   804           0.00049       -0.28125       -0.34375       -0.28125
 BRILLOUIN|   805           0.00049       -0.28125       -0.34375       -0.21875
 BRILLOUIN|   806           0.00049       -0.28125       -0.34375       -0.15625
 BRILLOUIN|   807           0.00049       -0.28125       -0.34375       -0.09375
 BRILLOUIN|   808           0.00049       -0.28125       -0.34375       -0.03125
 BRILLOUIN|   809           0.00049       -0.28125       -0.34375        0.03125
 BRILLOUIN|   810           0.00049       -0.28125       -0.34375        0.09375
 BRILLOUIN|   811           0.00049       -0.28125       -0.34375        0.15625
 BRILLOUIN|   812           0.00049       -0.28125       -0.34375        0.21875
 BRILLOUIN|   813           0.00049       -0.28125       -0.34375        0.28125
 BRILLOUIN|   814           0.00049       -0.28125       -0.34375        0.34375
 BRILLOUIN|   815           0.00049       -0.28125       -0.34375        0.40625
 BRILLOUIN|   816           0.00049       -0.28125       -0.34375        0.46875
 BRILLOUIN|   817           0.00049       -0.28125       -0.28125       -0.46875
 BRILLOUIN|   818           0.00049       -0.28125       -0.28125       -0.40625
 BRILLOUIN|   819           0.00049       -0.28125       -0.28125       -0.34375
 BRILLOUIN|   820           0.00049       -0.28125       -0.28125       -0.28125
 BRILLOUIN|   821           0.00049       -0.28125       -0.28125       -0.21875
 BRILLOUIN|   822           0.00049       -0.28125       -0.28125       -0.15625
 BRILLOUIN|   823           0.00049       -0.28125       -0.28125       -0.09375
 BRILLOUIN|   824           0.00049       -0.28125       -0.28125       -0.03125
 BRILLOUIN|   825           0.00049       -0.28125       -0.28125        0.03125
 BRILLOUIN|   826           0.00049       -0.28125       -0.28125        0.09375
 BRILLOUIN|   827           0.00049       -0.28125       -0.28125        0.15625
 BRILLOUIN|   828           0.00049       -0.28125       -0.28125        0.21875
 BRILLOUIN|   829           0.00049       -0.28125       -0.28125        0.28125
 BRILLOUIN|   830           0.00049       -0.28125       -0.28125        0.34375
 BRILLOUIN|   831           0.00049       -0.28125       -0.28125        0.40625
 BRILLOUIN|   832           0.00049       -0.28125       -0.28125        0.46875
 BRILLOUIN|   833           0.00049       -0.28125       -0.21875       -0.46875
 BRILLOUIN|   834           0.00049       -0.28125       -0.21875       -0.40625
 BRILLOUIN|   835           0.00049       -0.28125       -0.21875       -0.34375
 BRILLOUIN|   836           0.00049       -0.28125       -0.21875       -0.28125
 BRILLOUIN|   837           0.00049       -0.28125       -0.21875       -0.21875
 BRILLOUIN|   838           0.00049       -0.28125       -0.21875       -0.15625
 BRILLOUIN|   839           0.00049       -0.28125       -0.21875       -0.09375
 BRILLOUIN|   840           0.00049       -0.28125       -0.21875       -0.03125
 BRILLOUIN|   841           0.00049       -0.28125       -0.21875        0.03125
 BRILLOUIN|   842           0.00049       -0.28125       -0.21875        0.09375
 BRILLOUIN|   843           0.00049       -0.28125       -0.21875        0.15625
 BRILLOUIN|   844           0.00049       -0.28125       -0.21875        0.21875
[...]
 *******************************************************************************


 ===== Routine Calling Stack ===== 

            3 scf_env_do_scf
            2 qs_energies
            1 CP2K

 *******************************************************************************
 *   ___                                                                       *
 *  /   \                                                                      *
 * [ABORT]                                                                     *
 *  \___/     SCF run NOT converged. To continue the calculation regardless,   *
 *    |             please set the keyword IGNORE_CONVERGENCE_FAILURE.         *
 *  O/|                                                                        *
 * /| |                                                                        *
 * / \                                                            qs_scf.F:611 *
 *******************************************************************************


 ===== Routine Calling Stack ===== 

            3 scf_env_do_scf
            2 qs_energies
            1 CP2K

 *******************************************************************************
 *   ___                                                                       *
 *  /   \                                                                      *
 * [ABORT]                                                                     *
 *  \___/     SCF run NOT converged. To continue the calculation regardless,   *
 *    |             please set the keyword IGNORE_CONVERGENCE_FAILURE.         *
 *  O/|                                                                        *
 * /| |                                                                        *
 * / \                                                            qs_scf.F:611 *
 *******************************************************************************


 ===== Routine Calling Stack ===== 

            3 scf_env_do_scf
            2 qs_energies
            1 CP2K

 *******************************************************************************
 *   ___                                                                       *
 *  /   \                                                                      *
 * [ABORT]                                                                     *
 *  \___/     SCF run NOT converged. To continue the calculation regardless,   *
 *    |             please set the keyword IGNORE_CONVERGENCE_FAILURE.         *
 *  O/|                                                                        *
 * /| |                                                                        *
 * / \                                                            qs_scf.F:611 *
 *******************************************************************************


 ===== Routine Calling Stack ===== 

            3 scf_env_do_scf
            2 qs_energies
            1 CP2K

 *******************************************************************************
 *   ___                                                                       *
 *  /   \                                                                      *
 * [ABORT]                                                                     *
 *  \___/     SCF run NOT converged. To continue the calculation regardless,   *
 *    |             please set the keyword IGNORE_CONVERGENCE_FAILURE.         *
 *  O/|                                                                        *
 * /| |                                                                        *
 * / \                                                            qs_scf.F:611 *
 *******************************************************************************


 ===== Routine Calling Stack ===== 

            3 scf_env_do_scf
            2 qs_energies
            1 CP2K

 *******************************************************************************
 *   ___                                                                       *
 *  /   \                                                                      *
 * [ABORT]                                                                     *
 *  \___/     SCF run NOT converged. To continue the calculation regardless,   *
 *    |             please set the keyword IGNORE_CONVERGENCE_FAILURE.         *
 *  O/|                                                                        *
 * /| |                                                                        *
 * / \                                                            qs_scf.F:611 *
 *******************************************************************************


 ===== Routine Calling Stack ===== 

            3 scf_env_do_scf
            2 qs_energies
            1 CP2K

 *******************************************************************************
 *   ___                                                                       *
 *  /   \                                                                      *
 * [ABORT]                                                                     *
 *  \___/     SCF run NOT converged. To continue the calculation regardless,   *
 *    |             please set the keyword IGNORE_CONVERGENCE_FAILURE.         *
 *  O/|                                                                        *
 * /| |                                                                        *
 * / \                                                            qs_scf.F:611 *
 *******************************************************************************


 ===== Routine Calling Stack ===== 

            3 scf_env_do_scf
            2 qs_energies
            1 CP2K

 *******************************************************************************
 *   ___                                                                       *
 *  /   \                                                                      *
 * [ABORT]                                                                     *
 *  \___/     SCF run NOT converged. To continue the calculation regardless,   *
 *    |             please set the keyword IGNORE_CONVERGENCE_FAILURE.         *
 *  O/|                                                                        *
 * /| |                                                                        *
 * / \                                                            qs_scf.F:611 *
 *******************************************************************************


 ===== Routine Calling Stack ===== 

            3 scf_env_do_scf
            2 qs_energies
            1 CP2K

 *******************************************************************************
 *   ___                                                                       *
 *  /   \                                                                      *
 * [ABORT]                                                                     *
 *  \___/     SCF run NOT converged. To continue the calculation regardless,   *
 *    |             please set the keyword IGNORE_CONVERGENCE_FAILURE.         *
 *  O/|                                                                        *
 * /| |                                                                        *
 * / \                                                            qs_scf.F:611 *
 *******************************************************************************


 ===== Routine Calling Stack ===== 

            3 scf_env_do_scf
            2 qs_energies
            1 CP2K

 *******************************************************************************
 *   ___                                                                       *
 *  /   \                                                                      *
 * [ABORT]                                                                     *
 *  \___/     SCF run NOT converged. To continue the calculation regardless,   *
 *    |             please set the keyword IGNORE_CONVERGENCE_FAILURE.         *
 *  O/|                                                                        *
 * /| |                                                                        *
 * / \                                                            qs_scf.F:611 *
 *******************************************************************************


 ===== Routine Calling Stack ===== 

            3 scf_env_do_scf
            2 qs_energies
            1 CP2K

 *******************************************************************************
 *   ___                                                                       *
 *  /   \                                                                      *
 * [ABORT]                                                                     *
 *  \___/     SCF run NOT converged. To continue the calculation regardless,   *
 *    |             please set the keyword IGNORE_CONVERGENCE_FAILURE.         *
 *  O/|                                                                        *
 * /| |                                                                        *
 * / \                                                            qs_scf.F:611 *
 *******************************************************************************


 ===== Routine Calling Stack ===== 

            3 scf_env_do_scf
            2 qs_energies
            1 CP2K

 *******************************************************************************
 *   ___                                                                       *
 *  /   \                                                                      *
 * [ABORT]                                                                     *
 *  \___/     SCF run NOT converged. To continue the calculation regardless,   *
 *    |             please set the keyword IGNORE_CONVERGENCE_FAILURE.         *
 *  O/|                                                                        *
 * /| |                                                                        *
 * / \                                                            qs_scf.F:611 *
 *******************************************************************************


 ===== Routine Calling Stack ===== 

            3 scf_env_do_scf
            2 qs_energies
            1 CP2K

 *******************************************************************************
 *   ___                                                                       *
 *  /   \                                                                      *
 * [ABORT]                                                                     *
 *  \___/     SCF run NOT converged. To continue the calculation regardless,   *
 *    |             please set the keyword IGNORE_CONVERGENCE_FAILURE.         *
 *  O/|                                                                        *
 * /| |                                                                        *
 * / \                                                            qs_scf.F:611 *
 *******************************************************************************


 ===== Routine Calling Stack ===== 

            3 scf_env_do_scf
            2 qs_energies
            1 CP2K

 *******************************************************************************
 *   ___                                                                       *
 *  /   \                                                                      *
 * [ABORT]                                                                     *
 *  \___/     SCF run NOT converged. To continue the calculation regardless,   *
 *    |             please set the keyword IGNORE_CONVERGENCE_FAILURE.         *
 *  O/|                                                                        *
 * /| |                                                                        *
 * / \                                                            qs_scf.F:611 *
 *******************************************************************************


 ===== Routine Calling Stack ===== 

            3 scf_env_do_scf
            2 qs_energies
            1 CP2K

 *******************************************************************************
 *   ___                                                                       *
 *  /   \                                                                      *
 * [ABORT]                                                                     *
 *  \___/     SCF run NOT converged. To continue the calculation regardless,   *
 *    |             please set the keyword IGNORE_CONVERGENCE_FAILURE.         *
 *  O/|                                                                        *
 * /| |                                                                        *
 * / \                                                            qs_scf.F:611 *
 *******************************************************************************


 ===== Routine Calling Stack ===== 

            3 scf_env_do_scf
            2 qs_energies
            1 CP2K

 *******************************************************************************
 *   ___                                                                       *
 *  /   \                                                                      *
 * [ABORT]                                                                     *
 *  \___/     SCF run NOT converged. To continue the calculation regardless,   *
 *    |             please set the keyword IGNORE_CONVERGENCE_FAILURE.         *
 *  O/|                                                                        *
 * /| |                                                                        *
 * / \                                                            qs_scf.F:611 *
 *******************************************************************************


 ===== Routine Calling Stack ===== 

            3 scf_env_do_scf
            2 qs_energies
            1 CP2K

 *******************************************************************************
 *   ___                                                                       *
 *  /   \                                                                      *
 * [ABORT]                                                                     *
 *  \___/     SCF run NOT converged. To continue the calculation regardless,   *
 *    |             please set the keyword IGNORE_CONVERGENCE_FAILURE.         *
 *  O/|                                                                        *
 * /| |                                                                        *
 * / \                                                            qs_scf.F:611 *
 *******************************************************************************


 ===== Routine Calling Stack ===== 

            3 scf_env_do_scf
            2 qs_energies
            1 CP2K
            2 qs_energies
            1 CP2K
            3 scf_env_do_scf
            2 qs_energies
            1 CP2K
            2 qs_energies
            1 CP2K
            2 qs_energies
            1 CP2K

 *******************************************************************************
 *   ___                                                                       *
 *  /   \                                                                      *
 * [ABORT]                                                                     *
 *  \___/     SCF run NOT converged. To continue the calculation regardless,   *
 *    |             please set the keyword IGNORE_CONVERGENCE_FAILURE.         *
 *  O/|                                                                        *
 * /| |                                                                        *
 * / \                                                            qs_scf.F:611 *
 *******************************************************************************


 ===== Routine Calling Stack ===== 

            3 scf_env_do_scf
            2 qs_energies
            1 CP2K

 *******************************************************************************
 *   ___                                                                       *
 *  /   \                                                                      *
 * [ABORT]                                                                     *
 *  \___/     SCF run NOT converged. To continue the calculation regardless,   *
 *    |             please set the keyword IGNORE_CONVERGENCE_FAILURE.         *
 *  O/|                                                                        *
 * /| |                                                                        *
 * / \                                                            qs_scf.F:611 *
 *******************************************************************************


 ===== Routine Calling Stack ===== 

            3 scf_env_do_scf
            2 qs_energies
            1 CP2K

 *******************************************************************************
 *   ___                                                                       *
 *  /   \                                                                      *
 * [ABORT]                                                                     *
 *  \___/     SCF run NOT converged. To continue the calculation regardless,   *
 *    |             please set the keyword IGNORE_CONVERGENCE_FAILURE.         *
 *  O/|                                                                        *
 * /| |                                                                        *
 * / \                                                            qs_scf.F:611 *
 *******************************************************************************


 ===== Routine Calling Stack ===== 

            3 scf_env_do_scf
            2 qs_energies
            1 CP2K

 *******************************************************************************
 *   ___                                                                       *
 *  /   \                                                                      *
 * [ABORT]                                                                     *
 *  \___/     SCF run NOT converged. To continue the calculation regardless,   *
 *    |             please set the keyword IGNORE_CONVERGENCE_FAILURE.         *
 *  O/|                                                                        *
 * /| |                                                                        *
 * / \                                                            qs_scf.F:611 *
 *******************************************************************************


 ===== Routine Calling Stack ===== 

            3 scf_env_do_scf
            2 qs_energies
            1 CP2K

 *******************************************************************************
 *   ___                                                                       *
 *  /   \                                                                      *
 * [ABORT]                                                                     *
 *  \___/     SCF run NOT converged. To continue the calculation regardless,   *
 *    |             please set the keyword IGNORE_CONVERGENCE_FAILURE.         *
 *  O/|                                                                        *
 * /| |                                                                        *
 * / \                                                            qs_scf.F:611 *
 *******************************************************************************


 ===== Routine Calling Stack ===== 

            3 scf_env_do_scf
            2 qs_energies
            1 CP2K
            2 qs_energies
            1 CP2K

            3 scf_env_do_scf
            2 qs_energies
            1 CP2K
